# vtk DataFile Version 4.2
vtk output
ASCII
DATASET POLYDATA
POINTS 247 float
214.764 213.919 -18.8936 215.037 213.852 -18.4948 215.096 213.851 -17.4108 
214.705 213.842 -17.6194 214.375 214.375 -20.335 214.917 214.15 -18.846 
214.375 214.375 -18.1475 215.047 214.4 -17.4583 213.702 215.007 -17.5548 
213.845 214.972 -18.8502 213.723 215.439 -18.3946 214.061 215.252 -18.7632 
214.204 215.717 -17.2602 215.115 213.821 -15.6856 214.391 213.708 -15.7636 
214.02 214.2 -16.5791 215.353 214.531 -15.6393 213.429 214.743 -15.7294 
214.901 215.265 -16.8356 215.142 215.492 -15.4801 213.561 215.853 -17.1734 
213.206 215.937 -15.5515 213.494 216.6 -16.4692 213.823 216.594 -16.4849 
213.373 216.764 -15.3306 214.52 216.291 -15.5081 213.885 216.874 -15.3239 
214.374 213.493 -13.6502 213.576 213.858 -13.4927 213.711 213.963 -15.0422 
215.151 213.75 -13.6732 215.488 214.573 -13.6599 215.287 215.619 -13.6182 
213.105 214.798 -13.6331 212.989 215.989 -13.6219 213.292 216.857 -13.5682 
214.665 216.516 -13.6088 213.925 217.028 -13.5645 214.354 213.405 -11.5566 
213.503 213.802 -11.521 212.978 214.798 -11.5505 215.163 213.709 -11.5715 
212.896 216.006 -11.5559 215.534 214.581 -11.5702 215.343 215.664 -11.5602 
213.255 216.892 -11.5463 214.716 216.589 -11.5552 213.938 217.086 -11.5454 
159.2 165.319 -11.4049 159.634 165.21 -11.494 159.608 165.012 -10.6183 
159.033 165.32 -10.5651 159.154 165.616 -11.3616 159.606 165.586 -11.4523 
158.874 165.976 -10.4285 160.044 165.199 -11.428 160.12 165.124 -10.6016 
160.036 165.441 -11.4113 159.516 166.098 -10.4629 160.113 165.584 -10.5749 
159.546 164.776 -9.03506 158.772 165.232 -9.02378 158.36 166.075 -8.916 
160.195 164.971 -9.02338 158.739 166.606 -9.84527 159.098 166.664 -9.86542 
158.469 166.818 -8.72992 159.752 166.391 -9.01986 160.25 165.671 -9.06104 
159.09 166.902 -8.78907 222.141 178.074 -11.3108 222.456 178.073 -11.3803 
222.801 177.73 -10.6631 221.995 177.737 -10.4327 222.135 178.48 -11.2846 
222.46 178.486 -11.3266 221.969 178.803 -10.392 222.821 178.829 -10.494 
222.915 176.711 -9.92249 222.225 176.816 -9.87158 221.872 176.404 -8.70463 
221.135 177.527 -8.85422 221.111 179.035 -8.8567 223.646 177.582 -9.94899 
223.56 176.799 -9.69526 223.594 178.477 -9.93355 222.076 179.664 -9.84797 
222.6 179.704 -9.88545 221.795 180.089 -8.73998 223.294 179.429 -9.51775 
223.925 178.954 -8.83757 222.872 180.211 -8.79591 214.343 213.388 -9.46637 
213.485 213.791 -9.45875 212.955 214.796 -9.46408 215.155 213.701 -9.47241 
212.882 216.007 -9.46875 215.529 214.581 -9.47205 215.341 215.667 -9.47025 
213.249 216.894 -9.4705 214.717 216.593 -9.46872 213.938 217.088 -9.46991 
159.475 164.319 -7.06909 158.456 165.029 -7.15898 157.768 166.155 -7.02484 
160.298 164.619 -7.01007 158.003 167.201 -6.91848 159.849 166.61 -7.37077 
160.338 165.736 -7.25268 159.033 167.21 -7.12891 222.89 176.089 -8.696 
223.73 176.517 -8.68299 222.853 175.385 -6.97866 221.463 175.753 -6.90394 
220.816 176.85 -7.62319 223.822 176.147 -7.10943 220.246 177.545 -6.91701 
220.44 177.897 -8.02166 220.429 178.721 -8.02234 224.069 177.582 -8.76795 
224.264 177.494 -7.16448 224.216 179.045 -7.15012 220.222 179.179 -6.91942 
220.762 179.783 -7.654 221.323 180.91 -6.99206 223.654 179.968 -8.28921 
223.757 180.372 -6.99017 222.765 181.129 -6.98502 214.34 213.434 -7.49446 
213.517 213.822 -7.49534 213.015 214.807 -7.49164 215.119 213.73 -7.5001 
212.942 215.998 -7.49969 215.47 214.583 -7.49587 215.282 215.635 -7.49775 
213.276 216.864 -7.51203 214.667 216.533 -7.49545 213.923 217.039 -7.50947 
159.029 164.095 -5.88455 158.122 164.757 -5.43538 157.505 165.737 -5.85331 
160.267 163.903 -6.14873 159.835 163.78 -6.15685 159.511 163.717 -5.27467 
157.097 166.417 -5.19163 157.19 166.658 -6.10064 157.28 167.284 -6.04606 
159.872 166.842 -6.03899 160.293 166.067 -5.56301 159.096 167.621 -5.35203 
160.423 164.722 -5.51531 160.221 163.881 -5.31114 157.179 167.683 -5.06378 
157.944 167.934 -5.46423 222.58 174.75 -6.12038 221.96 174.876 -6.10116 
222 174.773 -5.26407 221.255 175.529 -5.40823 220.464 176.402 -5.39196 
220.557 176.441 -6.40598 223.287 175.064 -5.88439 222.897 174.646 -5.26828 
223.84 175.721 -5.52245 224.181 177.396 -5.57747 224.158 179.161 -5.56212 
220.117 177.657 -5.47491 220.089 179.265 -5.44773 220.478 180.414 -6.41354 
220.369 180.834 -5.31332 223.777 180.834 -5.47575 220.917 181.396 -5.81138 
221.672 181.76 -6.11553 222.399 181.826 -6.11675 221.413 181.921 -5.2121 
223.177 181.488 -5.86242 222.664 181.952 -5.23022 214.341 213.587 -5.85753 
213.612 213.918 -5.87455 213.204 214.834 -5.84939 215.032 213.822 -5.8794 
213.126 215.975 -5.87357 215.307 214.595 -5.85682 215.13 215.55 -5.87255 
213.352 216.786 -5.9184 214.528 216.354 -5.8534 213.888 216.907 -5.90919 
159.471 163.947 -4.45462 158.785 164.095 -4.41312 158.758 163.982 -4.93917 
160.079 163.997 -4.61466 160.118 164.77 -4.51837 160.01 165.986 -4.46231 
158.261 164.989 -4.30404 157.449 165.57 -4.36455 157.366 165.493 -4.90482 
159.892 166.969 -4.99931 159.786 166.909 -4.41399 157.277 166.499 -4.31422 
157.242 167.682 -4.27321 157.256 168.429 -4.5686 157.795 168.54 -4.63677 
157.273 168.405 -4.21509 158.468 168.394 -4.65137 158.954 167.469 -4.24768 
158.433 168.332 -4.2201 222.844 174.889 -4.44421 222.096 174.966 -4.54648 
221.56 175.913 -4.35188 223.529 174.906 -4.98153 223.45 174.996 -4.47474 
220.672 176.53 -4.57985 220.504 177.671 -4.43292 220.478 179.261 -4.36192 
223.574 175.844 -4.46375 223.69 177.406 -4.40936 223.672 179.17 -4.38594 
220.596 180.749 -4.35193 223.511 180.733 -4.40157 220.687 181.656 -4.8787 
220.763 181.585 -4.38133 223.409 181.67 -4.94222 223.322 181.589 -4.41556 
221.488 181.718 -4.32545 222.588 181.723 -4.3358 214.335 213.956 -4.84769 
213.77 214.093 -4.954 213.605 214.86 -4.82855 214.882 213.996 -4.9618 
213.522 215.937 -4.90302 214.962 214.641 -4.84561 214.882 215.41 -4.94615 
213.487 216.644 -5.05236 214.227 215.92 -4.81577 213.836 216.67 -5.02788 
159.305 164.842 -4.13777 158.079 166.318 -3.98007 159.153 166.162 -4.019 
157.948 167.618 -4.00051 157.794 168.454 -4.14335 222.719 175.86 -4.09881 
221.471 177.492 -3.93313 222.693 177.427 -3.87139 221.445 179.214 -3.82495 
222.669 179.186 -3.8171 221.465 180.754 -3.93605 222.622 180.747 -3.94477 
214.297 214.791 -4.57412 
POLYGONS 242 1210
4 0 1 2 3 
4 0 4 5 1 
4 0 3 6 4 
4 1 5 7 2 
4 4 6 7 5 
4 4 6 8 9 
4 4 9 10 11 
4 4 11 12 6 
4 3 2 13 14 
4 3 14 15 6 
4 2 7 16 13 
4 6 15 17 8 
4 6 12 18 7 
4 7 18 19 16 
4 9 8 20 10 
4 10 20 12 11 
4 8 17 21 20 
4 20 22 23 12 
4 20 21 24 22 
4 12 25 19 18 
4 12 23 26 25 
4 14 27 28 29 
4 14 29 17 15 
4 14 13 30 27 
4 13 16 31 30 
4 16 19 32 31 
4 17 29 28 33 
4 17 33 34 21 
4 21 34 35 24 
4 25 36 32 19 
4 25 26 37 36 
4 22 24 26 23 
4 24 35 37 26 
4 28 27 38 39 
4 28 39 40 33 
4 27 30 41 38 
4 33 40 42 34 
4 30 31 43 41 
4 31 32 44 43 
4 34 42 45 35 
4 36 46 44 32 
4 36 37 47 46 
4 35 45 47 37 
4 48 49 50 51 
4 48 52 53 49 
4 48 51 54 52 
4 49 55 56 50 
4 49 53 57 55 
4 52 54 58 53 
4 53 58 59 57 
4 51 50 60 61 
4 51 61 62 54 
4 50 56 63 60 
4 54 64 65 58 
4 54 62 66 64 
4 58 67 68 59 
4 58 65 69 67 
4 55 57 59 56 
4 56 59 68 63 
4 70 71 72 73 
4 70 74 75 71 
4 70 73 76 74 
4 71 75 77 72 
4 74 76 77 75 
4 73 72 78 79 
4 73 79 80 81 
4 73 81 82 76 
4 72 83 84 78 
4 72 77 85 83 
4 76 86 87 77 
4 76 82 88 86 
4 77 89 90 85 
4 77 87 91 89 
4 39 38 92 93 
4 39 93 94 40 
4 38 41 95 92 
4 40 94 96 42 
4 41 43 97 95 
4 43 44 98 97 
4 42 96 99 45 
4 46 100 98 44 
4 46 47 101 100 
4 45 99 101 47 
4 61 60 102 103 
4 61 103 104 62 
4 60 63 105 102 
4 62 104 106 66 
4 67 107 108 68 
4 67 69 109 107 
4 63 68 108 105 
4 64 66 69 65 
4 66 106 109 69 
4 79 78 110 80 
4 78 84 111 110 
4 80 110 112 113 
4 80 113 114 81 
4 110 111 115 112 
4 81 114 116 117 
4 81 117 118 82 
4 84 83 119 111 
4 83 85 90 119 
4 111 119 120 115 
4 119 90 121 120 
4 82 118 122 123 
4 82 123 124 88 
4 89 91 125 90 
4 90 125 126 121 
4 86 88 91 87 
4 88 124 127 91 
4 91 127 126 125 
4 93 92 128 129 
4 93 129 130 94 
4 92 95 131 128 
4 94 130 132 96 
4 95 97 133 131 
4 97 98 134 133 
4 96 132 135 99 
4 100 136 134 98 
4 100 101 137 136 
4 99 135 137 101 
4 103 102 138 139 
4 103 139 140 104 
4 102 105 141 142 
4 102 142 143 138 
4 104 140 144 145 
4 104 145 146 106 
4 107 147 148 108 
4 107 109 149 147 
4 105 150 151 141 
4 105 108 148 150 
4 106 146 152 153 
4 106 153 149 109 
4 113 112 154 155 
4 113 155 156 157 
4 113 157 158 159 
4 113 159 116 114 
4 112 160 161 154 
4 112 115 162 160 
4 115 120 163 162 
4 120 121 164 163 
4 117 116 122 118 
4 116 159 158 165 
4 116 165 166 122 
4 122 167 124 123 
4 122 166 168 167 
4 121 126 169 164 
4 124 167 168 170 
4 124 171 172 127 
4 124 170 173 171 
4 127 174 169 126 
4 127 172 175 174 
4 129 128 176 177 
4 129 177 178 130 
4 128 131 179 176 
4 130 178 180 132 
4 131 133 181 179 
4 133 134 182 181 
4 132 180 183 135 
4 136 184 182 134 
4 136 137 185 184 
4 135 183 185 137 
4 142 141 151 143 
4 143 186 187 188 
4 143 188 139 138 
4 143 151 189 186 
4 151 150 190 189 
4 150 148 191 190 
4 139 188 187 192 
4 139 192 193 194 
4 139 194 144 140 
4 147 149 195 148 
4 148 195 196 191 
4 145 144 152 146 
4 144 194 193 197 
4 144 197 198 152 
4 152 199 200 153 
4 152 198 201 199 
4 153 200 202 149 
4 149 203 196 195 
4 149 202 204 203 
4 155 154 161 156 
4 156 161 205 206 
4 156 206 207 157 
4 161 208 209 205 
4 161 160 162 208 
4 157 207 210 158 
4 158 210 211 165 
4 165 211 212 166 
4 162 213 209 208 
4 162 163 214 213 
4 163 164 215 214 
4 166 212 216 168 
4 164 169 217 215 
4 168 218 173 170 
4 168 216 219 218 
4 174 175 220 169 
4 169 220 221 217 
4 171 173 175 172 
4 173 218 219 222 
4 173 222 223 175 
4 175 223 221 220 
4 177 176 224 225 
4 177 225 226 178 
4 176 179 227 224 
4 178 226 228 180 
4 179 181 229 227 
4 181 182 230 229 
4 180 228 231 183 
4 184 232 230 182 
4 184 185 233 232 
4 183 231 233 185 
4 187 186 234 192 
4 186 189 190 234 
4 192 235 197 193 
4 192 234 236 235 
4 234 190 191 236 
4 197 235 237 198 
4 235 236 203 237 
4 236 191 196 203 
4 198 237 238 201 
4 237 203 204 238 
4 199 201 238 200 
4 200 238 204 202 
4 206 205 239 207 
4 205 209 213 239 
4 207 240 211 210 
4 207 239 241 240 
4 239 213 214 241 
4 211 240 242 212 
4 240 241 243 242 
4 241 214 215 243 
4 212 242 244 216 
4 242 243 245 244 
4 243 215 217 245 
4 216 244 222 219 
4 244 245 223 222 
4 245 217 221 223 
4 225 224 246 226 
4 224 227 229 246 
4 226 246 232 228 
4 246 229 230 232 
4 228 232 233 231 

POINT_DATA 247
COLOR_SCALARS scalars 1
0.25098 0.211765 0.298039 
0.34902 0.309804 
0.211765 0.435294 
0.294118 0.309804 
0.223529 0.27451 
0.286275 0.4 
0.329412 0.388235 
0.482353 0.32549 
0.345098 0.2 
0.223529 0.384314 
0.427451 0.294118 
0.247059 0.329412 
0.447059 0.27451 
0.388235 0.211765 
0.211765 0.329412 
0.32549 0.223529 
0.345098 0.427451 
0.329412 0.447059 
0.27451 0.388235 
0.211765 0.345098 
0.329412 0.427451 
0.32549 0.223529 
0.329412 0.447059 
0.27451 0.211765 
0.32549 0.364706 
0.247059 0.262745 
0.341176 0.333333 
0.223529 0.270588 
0.207843 0.396078 
0.239216 0.407843 
0.282353 0.4 
0.313725 0.243137 
0.227451 0.305882 
0.45098 0.27451 
0.270588 0.25098 
0.282353 0.458824 
0.411765 0.247059 
0.266667 0.403922 
0.435294 0.333333 
0.301961 0.419608 
0.568627 0.560784 
0.286275 0.2 
0.247059 0.298039 
0.301961 0.411765 
0.603922 0.341176 
0.419608 0.388235 
0.211765 0.345098 
0.329412 0.427451 
0.32549 0.223529 
0.329412 0.447059 
0.27451 0.482353 
0.34902 0.486275 
0.376471 0.403922 
0.52549 0.329412 
0.341176 0.462745 
0.27451 0.552941 
0.494118 0.647059 
0.345098 0.301961 
0.254902 0.254902 
0.4 0.47451 
0.423529 0.32549 
0.654902 0.513725 
0.207843 0.282353 
0.521569 0.388235 
0.211765 0.345098 
0.329412 0.427451 
0.32549 0.223529 
0.329412 0.447059 
0.27451 0.572549 
0.435294 0.584314 
0.219608 0.243137 
0.329412 0.345098 
0.25098 0.243137 
0.611765 0.4 
0.427451 0.45098 
0.294118 0.356863 
0.517647 0.258824 
0.239216 0.305882 
0.545098 0.247059 
0.223529 0.619608 
0.337255 0.411765 
0.533333 0.498039 
0.337255 0.396078 
0.262745 0.34902 
0.368627 0.603922 
0.266667 0.258824 
0.376471 0.611765 
0.360784 0.388235 
0.211765 0.345098 
0.329412 0.427451 
0.32549 0.223529 
0.329412 0.447059 
0.27451 0.415686 
0.262745 0.203922 
0.368627 0.52549 
0.470588 0.517647 
0.266667 0.203922 
0.215686 0.270588 
0.439216 0.470588 
0.235294 0.294118 
0.337255 0.196078 
0.513725 0.258824 
0.415686 0.376471 
0.592157 0.2 
0.254902 0.270588 
0.372549 0.466667 
0.47451 0.596078 
0.576471 0.439216 
0.454902 0.211765 
0.286275 0.196078 
0.258824 0.490196 
0.462745 0.388235 
0.211765 0.345098 
0.329412 0.427451 
0.32549 0.223529 
0.329412 0.447059 
0.27451 0.658824 
0.682353 0.698039 
0.627451 0.396078 
0.690196 0.717647 
0.823529 0.772549 
0.823529 0.698039 
0.705882 0.482353 

