# vtk DataFile Version 4.2
vtk output
ASCII
DATASET POLYDATA
POINTS 84 float
222.135 178.087 -11.2834 222.459 178.08 -11.3259 222.82 177.744 -10.4897 
221.97 177.771 -10.3853 222.141 178.492 -11.3084 222.456 178.492 -11.378 
221.996 178.83 -10.4303 222.801 178.836 -10.6604 222.595 176.882 -9.86882 
222.079 176.921 -9.82902 221.808 176.533 -8.69766 221.12 177.563 -8.83918 
221.139 179.048 -8.85043 223.286 177.165 -9.50473 222.855 176.417 -8.75745 
223.592 178.102 -9.93222 223.917 177.657 -8.83495 223.645 178.989 -9.94777 
222.225 179.749 -9.871 222.915 179.852 -9.92102 221.873 180.162 -8.70348 
223.559 179.767 -9.69449 222.695 175.623 -6.86893 221.383 175.829 -6.887 
220.79 176.874 -7.61271 223.635 176.697 -8.27563 223.72 176.441 -6.99013 
220.244 177.517 -6.91821 220.44 177.892 -8.01645 220.446 178.693 -8.0194 
220.255 179.064 -6.91961 220.819 179.728 -7.62284 221.465 180.816 -6.90476 
224.066 179.003 -8.76879 223.728 180.053 -8.68321 224.198 177.654 -7.16394 
224.256 179.124 -7.17253 223.819 180.433 -7.11221 222.889 180.476 -8.69521 
222.852 181.181 -6.97922 222.294 174.898 -6.09685 221.77 174.962 -6.10081 
221.727 174.855 -5.31513 221.152 175.565 -5.45276 220.432 176.39 -5.42033 
220.528 176.452 -6.40705 222.94 175.494 -5.49717 222.342 174.826 -5.32291 
223.736 176.386 -5.61792 224.133 177.675 -5.63312 224.17 179.264 -5.60565 
220.121 177.572 -5.50494 220.131 179.003 -5.49899 220.56 180.143 -6.40833 
220.47 180.193 -5.40147 223.836 180.867 -5.53048 221.258 181.045 -5.41458 
221.961 181.689 -6.10227 222.58 181.814 -6.12117 222.001 181.792 -5.26735 
223.285 181.505 -5.88707 222.896 181.919 -5.27091 222.28 175.032 -4.68945 
221.792 175.043 -4.6848 221.462 175.939 -4.50126 222.627 175.93 -4.518 
220.637 176.51 -4.65072 223.487 176.526 -4.72359 220.504 177.586 -4.50783 
220.516 178.995 -4.48973 223.651 177.674 -4.54083 223.68 179.258 -4.46836 
220.678 180.074 -4.60198 223.57 180.75 -4.48265 221.563 180.67 -4.37486 
222.097 181.603 -4.55487 223.527 181.665 -4.9855 223.448 181.577 -4.48214 
222.843 181.679 -4.4531 221.452 177.478 -4.06682 222.664 177.503 -4.06208 
221.476 179.134 -4.02015 222.69 179.198 -3.9596 222.718 180.724 -4.126 

POLYGONS 82 410
4 0 1 2 3 
4 0 4 5 1 
4 0 3 6 4 
4 1 5 7 2 
4 4 6 7 5 
4 3 2 8 9 
4 3 9 10 11 
4 3 11 12 6 
4 2 13 14 8 
4 2 15 16 13 
4 2 7 17 15 
4 6 18 19 7 
4 6 12 20 18 
4 7 19 21 17 
4 9 8 14 10 
4 10 14 22 23 
4 10 23 24 11 
4 14 25 26 22 
4 14 13 16 25 
4 11 24 27 28 
4 11 28 29 12 
4 12 29 30 31 
4 12 31 32 20 
4 15 17 33 16 
4 17 21 34 33 
4 16 35 26 25 
4 16 33 36 35 
4 33 34 37 36 
4 18 20 38 19 
4 19 38 34 21 
4 20 32 39 38 
4 38 39 37 34 
4 23 22 40 41 
4 23 41 42 43 
4 23 43 44 45 
4 23 45 27 24 
4 22 46 47 40 
4 22 26 48 46 
4 26 35 49 48 
4 35 36 50 49 
4 28 27 30 29 
4 27 45 44 51 
4 27 51 52 30 
4 30 53 32 31 
4 30 52 54 53 
4 36 37 55 50 
4 32 53 54 56 
4 32 57 58 39 
4 32 56 59 57 
4 39 60 55 37 
4 39 58 61 60 
4 41 40 47 42 
4 42 47 62 63 
4 42 63 64 43 
4 47 46 65 62 
4 43 64 66 44 
4 46 48 67 65 
4 44 66 68 51 
4 51 68 69 52 
4 48 49 70 67 
4 49 50 71 70 
4 52 69 72 54 
4 50 55 73 71 
4 54 72 74 56 
4 56 74 75 59 
4 60 61 76 55 
4 55 76 77 73 
4 57 59 61 58 
4 59 75 78 61 
4 61 78 77 76 
4 63 62 65 64 
4 64 79 68 66 
4 64 65 80 79 
4 65 67 70 80 
4 68 79 81 69 
4 79 80 82 81 
4 80 70 71 82 
4 69 81 74 72 
4 81 82 83 74 
4 82 71 73 83 
4 74 83 78 75 
4 83 73 77 78 

POINT_DATA 84
COLOR_SCALARS scalars 1
0.247059 0.266667 0.435294 
0.403922 0.25098 
0.282353 0.411765 
0.458824 0.301961 
0.298039 0.411765 
0.560784 0.568627 
0.603922 0.419608 
0.247059 0.341176 
0.286275 0.301961 
0.333333 0.419608 
0.2 0.501961 
0.490196 0.654902 
0.207843 0.254902 
0.32549 0.254902 
0.254902 0.341176 
0.670588 0.521569 
0.4 0.27451 
0.407843 0.470588 
0.345098 0.462745 
0.556863 0.239216 
0.235294 0.305882 
0.552941 0.286275 
0.239216 0.560784 
0.305882 0.298039 
0.458824 0.52549 
0.403922 0.435294 
0.266667 0.352941 
0.411765 0.607843 
0.25098 0.258824 
0.337255 0.635294 
0.345098 0.376471 
0.376471 0.615686 
0.619608 0.337255 
0.345098 0.478431 
0.529412 0.509804 
0.580392 0.443137 
0.47451 0.698039 
0.423529 0.2 
0.254902 0.427451 
0.768627 0.784314 
0.811765 0.835294 
0.709804 
