# vtk DataFile Version 4.2
vtk output
ASCII
DATASET POLYDATA
POINTS 801 float
168.969 122.501 -30.1568 169.552 122.629 -30.5587 169.738 122.327 -29.3109 
168.386 122.163 -29.0634 169.118 122.921 -30.5298 170 123.25 -31.99 
168.525 123.114 -29.2091 170 123.25 -29.865 170.89 123.757 -30.6183 
171.432 123.688 -29.3562 170.488 124.141 -30.574 171.091 124.295 -30.2815 
170.323 124.738 -29.2127 167.875 121.125 -27.74 165.75 121.125 -27.74 
167.017 121.99 -28.5137 167.05 122.77 -28.5466 170 121.125 -27.74 
170.736 122.749 -29.0664 170.871 122.428 -28.3834 165.75 123.25 -27.74 
167.982 123.232 -28.0933 168.881 124.43 -28.777 167.875 125.375 -27.74 
171.747 124.832 -29.3101 171.739 123.55 -28.2925 173.13 124.063 -28.6019 
174.25 123.25 -27.74 173.526 125.236 -28.4907 170 125.375 -27.74 
170.812 126.119 -28.6039 172.09 125.912 -28.6421 170 127.5 -27.74 
173.592 126.007 -28.2434 167.82 120.535 -26.6577 166.562 120.632 -26.5786 
166.134 120.542 -25.2569 165.75 121.125 -25.615 167.687 120.862 -25.9757 
164.845 121.426 -25.1083 165.181 121.646 -26.4981 165.17 122.407 -26.5002 
165.348 122.445 -25.5489 169.938 123.313 -27.9686 169.034 120.547 -26.674 
169.275 120.555 -25.8643 164.794 122.291 -25.1204 169.115 120.244 -25.6054 
172.023 125.165 -27.9484 174.25 125.375 -27.74 169.377 125.999 -27.4216 
168.731 125.933 -27.4039 168.941 126.434 -27.5586 169.007 126.368 -27.3434 
172.028 126.3 -27.9788 169.443 126.644 -27.4044 173.882 126.379 -27.3962 
174.504 125.663 -27.9977 175.104 125.473 -27.1814 174.51 126.116 -27.9253 
174.983 124.464 -27.1683 175.443 124.745 -26.5434 174.886 124.521 -26.888 
174.939 125.676 -26.4504 174.25 127.5 -25.615 175.05 126.419 -27.1078 
176.375 127.5 -25.615 176.375 125.375 -25.615 167.719 120.268 -25.5525 
165.732 120.583 -23.917 164.254 120.646 -23.1436 164.996 120.745 -24.5516 
167.612 120.308 -24.7519 169.068 120.178 -24.9815 165.86 121.37 -24.053 
167.643 120.681 -24.8662 165.186 123.066 -23.6714 169.109 120.379 -25.0551 
169.811 120.153 -25.1837 169.796 120.127 -24.9303 169.852 120.288 -25.2513 
169.814 120.238 -24.962 163.955 121.524 -23.4765 164.132 122.845 -23.1208 
176.804 126.149 -24.4428 176.967 126.27 -23.2062 176.649 126.205 -23.5065 
176.781 126.857 -24.4401 176.375 127.5 -23.49 174.53 127.84 -23.7394 
173.193 128.257 -23.4154 173.571 128.062 -24.3944 173.585 128.35 -24.0794 
174.365 128.228 -24.4117 175.449 128.148 -24.4379 176.883 126.941 -23.1919 
175.627 128.522 -23.1792 163.824 120.399 -21.3834 162.645 120.284 -20.9693 
163.19 120.673 -22.1957 163.035 121.437 -22.2668 164.812 120.751 -22.5442 
164.87 121.678 -22.455 163.159 122.389 -22.1684 164.872 123.322 -22.1899 
162.649 122.902 -20.9073 163.625 123.25 -21.365 164.475 124.54 -22.6769 
165.75 125.375 -23.49 163.625 125.375 -21.365 165.75 125.375 -21.365 
177.053 125.929 -21.7086 176.687 125.795 -21.7689 176.375 127.5 -21.365 
176.977 127.158 -21.6345 174.558 128.126 -22.5334 176.375 129.625 -21.365 
173.163 128.54 -23.2985 174.35 128.601 -23.3459 173.133 128.367 -22.7822 
172.388 128.463 -22.7463 172.411 128.433 -22.987 172.403 128.559 -22.9582 
172.385 128.579 -22.7328 173.12 128.612 -22.7464 174.521 128.783 -22.4562 
162.369 121.399 -20.897 163.761 119.316 -18.9889 161.5 119 -19.24 
161.5 121.125 -19.24 163.838 121.586 -21.2396 163.017 121.282 -19.8361 
161.5 123.25 -19.24 162.964 123.23 -19.8933 162.934 124.194 -20.6774 
162.681 124.225 -19.6977 163.688 125.127 -19.1516 175.007 121.972 -21.7181 
175.323 122.312 -21.8027 175.319 122.414 -21.5571 174.461 121.419 -21.2231 
175.285 122.35 -21.8027 175.599 122.747 -21.7952 175.281 122.452 -21.557 
176.133 123.751 -21.4932 173.825 120.686 -20.8127 173.6 120.488 -20.6822 
173.787 120.724 -20.8128 173.825 120.724 -20.7745 173.639 120.488 -20.6442 
173.601 120.526 -20.6442 176.855 124.807 -21.3047 177.044 125.056 -20.9788 
176.78 124.786 -21.0501 176.943 125.863 -21.0578 166.165 125.751 -22.7345 
166.164 125.751 -22.1196 166.126 125.79 -22.7345 166.309 125.934 -22.5841 
166.126 125.789 -22.1196 166.309 125.934 -22.2696 176.871 127.198 -20.9695 
177.159 125.918 -21.0283 177.126 127.078 -20.9942 176.892 128.292 -21.2357 
176.818 128.306 -20.9772 177.047 127.958 -20.9336 162.349 119.227 -17.8171 
161.381 120.049 -18.2157 161.205 120.026 -18.6891 161.094 121.048 -18.7338 
161.438 120.83 -18.4457 165.723 118.473 -17.8673 165.924 118.086 -17.6366 
164.63 118.432 -17.9817 164.361 118.201 -17.1842 164.039 118.658 -17.499 
165.827 118.407 -17.0774 161.087 122.039 -18.7873 161.226 121.969 -18.6623 
173.508 120.391 -20.5752 160.992 121.703 -18.5272 164.263 125.835 -18.157 
164.491 126.121 -17.4767 164.3 125.956 -17.7042 164.208 125.89 -18.1572 
164.41 126.086 -17.8869 164.425 126.188 -17.4773 137.601 196.622 -19.119 
138.118 196.565 -19.2218 138.101 196.208 -18.3596 137.32 196.456 -18.2548 
137.591 196.978 -19.1211 138.121 197.016 -19.2683 137.282 197.285 -18.2197 
138.631 196.63 -19.1033 138.878 196.481 -18.2142 138.646 196.982 -19.1087 
138.116 197.511 -18.5765 138.933 197.292 -18.1919 138.052 195.634 -16.9233 
136.626 195.871 -16.5192 136.401 197.204 -16.508 139.445 195.977 -16.3846 
137.43 198.004 -17.6657 138.107 198.148 -17.7737 137.107 198.155 -16.5215 
138.776 198.004 -17.6483 139.732 197.23 -16.4127 139.031 198.152 -16.4836 
152.476 200.393 -19.1074 153.001 200.358 -19.2628 153 199.86 -18.5654 
152.183 200.078 -18.1843 152.49 200.744 -19.0983 153.001 200.806 -19.2104 
152.235 200.891 -18.2034 153.525 200.392 -19.1056 153.818 200.078 -18.1836 
153.511 200.744 -19.0964 153.001 201.152 -18.3337 153.766 200.89 -18.2022 
153 199.218 -17.7523 152.335 199.361 -17.631 152.059 199.191 -16.4329 
151.365 200.123 -16.3875 151.64 201.394 -16.3611 153.665 199.361 -17.6306 
153 201.698 -16.8713 154.361 201.393 -16.3607 154.636 200.122 -16.3871 
153.941 199.191 -16.4324 165.966 117.884 -16.9319 167.403 117.917 -17.3252 
167.658 117.772 -16.5547 167.355 118.18 -17.378 167.614 118.243 -16.6015 
164.427 118.095 -16.596 163.468 118.28 -16.736 163.244 118.473 -17.1377 
166.056 117.924 -16.2519 168.047 117.829 -15.4528 163.225 118.559 -16.9328 
164.313 118.338 -16.7037 166.008 118.194 -16.3004 168.033 118.115 -15.4673 
168.403 117.894 -17.0487 169.024 117.827 -16.1624 168.39 118.065 -17.0616 
169.014 118.09 -16.1711 169.412 117.77 -14.8566 169.407 118.126 -14.8612 
169.919 117.868 -15.5166 170.193 117.848 -14.4897 169.916 118.021 -15.518 
170.191 118.034 -14.4904 161.072 120.933 -18.3926 164.55 126.264 -17.3753 
164.588 126.259 -17.0196 164.497 126.212 -17.083 164.534 126.313 -17.0204 
164.611 126.342 -16.9826 168.894 128.532 -16.8872 168.959 128.532 -16.8869 
168.954 128.52 -16.135 168.861 128.52 -16.1322 168.894 128.596 -16.886 
168.959 128.596 -16.8856 168.861 128.608 -16.1317 168.954 128.608 -16.1337 
168.902 128.512 -14.6306 168.778 128.511 -14.6171 168.778 128.617 -14.6168 
168.902 128.615 -14.6298 137.96 194.862 -15.8211 136.932 194.945 -15.7075 
136.345 194.45 -14.3926 135.946 195.239 -15.225 135.189 195.591 -14.4219 
135.665 196.056 -15.6659 135.638 196.734 -15.6965 138.916 195.067 -15.6927 
135.324 196.813 -14.6021 135.949 197.642 -15.0022 136.807 198.333 -14.9757 
139.936 195.518 -14.6262 139.044 194.75 -14.504 140.365 196.314 -15.6039 
140.615 196.206 -14.4423 140.45 196.845 -15.6138 140.052 197.597 -14.7439 
140.657 196.921 -14.4672 139.147 198.309 -14.9012 138.073 198.446 -16.5356 
137.995 198.585 -14.9625 153 198.897 -16.4675 153 198.678 -14.7503 
151.886 198.955 -14.7298 150.992 199.677 -14.658 154.114 198.955 -14.7296 
150.409 200.412 -14.4295 150.647 200.516 -15.5969 150.73 201.064 -15.5877 
155.008 199.676 -14.6577 155.354 200.516 -15.5969 155.591 200.412 -14.4289 
155.271 201.064 -15.5875 150.45 201.19 -14.4116 151.095 201.9 -14.574 
152.117 202.276 -15.6588 153.001 202.425 -15.7894 151.934 202.583 -14.4299 
153.884 202.275 -15.6582 154.906 201.9 -14.574 155.551 201.19 -14.4112 
154.067 202.583 -14.4297 169.963 117.844 -13.168 169.01 117.867 -14.2305 
169.007 118.03 -14.2338 169.962 118.039 -13.1692 170.513 117.866 -12.826 
170.513 118.013 -12.8263 179.532 126.407 -14.7653 179.595 126.407 -14.7643 
179.606 126.396 -14.0173 179.52 126.396 -14.0172 179.532 126.471 -14.7641 
179.595 126.47 -14.763 179.52 126.482 -14.0167 179.606 126.482 -14.016 
179.611 126.39 -12.5329 179.514 126.39 -12.5328 179.514 126.488 -12.5326 
179.612 126.487 -12.5322 168.768 128.502 -12.7032 168.573 128.498 -12.6421 
168.574 128.63 -12.6419 168.768 128.625 -12.7027 173.888 130.618 -14.8665 
174.251 130.591 -14.9369 174.25 130.472 -14.0861 173.826 130.575 -14.0698 
173.889 130.759 -14.8654 174.251 130.786 -14.9356 173.827 130.803 -14.0692 
174.613 130.618 -14.8647 174.675 130.574 -14.0689 174.612 130.759 -14.8635 
174.251 130.905 -14.0848 174.674 130.802 -14.068 174.25 130.411 -12.5567 
173.796 130.548 -12.5529 173.797 130.829 -12.5527 174.704 130.548 -12.5526 
174.251 130.965 -12.556 174.704 130.829 -12.5521 137.819 194.357 -14.4399 
136.023 193.657 -12.3156 134.68 194.029 -12.0133 135.286 194.611 -13.7213 
137.794 193.897 -12.6565 139.083 194.566 -12.9199 140.027 195.463 -12.8426 
140.706 196.191 -12.7438 134.48 195.322 -12.4042 135.142 197.028 -13.0602 
135.728 197.779 -13.7797 136.436 198.254 -13.3519 140.064 197.544 -12.9715 
140.72 196.896 -12.7725 139.115 198.233 -13.2937 137.874 198.468 -13.3745 
153 198.566 -12.7926 151.812 198.828 -12.7834 150.851 199.51 -12.751 
154.188 198.828 -12.7833 150.279 200.357 -12.6864 155.149 199.51 -12.7509 
155.721 200.357 -12.6861 150.295 201.259 -12.676 150.888 202.096 -12.7077 
151.834 202.761 -12.6776 155.114 202.097 -12.7078 155.706 201.259 -12.6757 
154.167 202.761 -12.6776 153 202.817 -14.4268 153 203.01 -12.6711 
170.839 117.879 -10.7806 170.612 117.874 -10.8593 170.613 118.004 -10.8596 
170.839 117.999 -10.7809 158.763 122.181 -13.4461 159.003 122.26 -13.7757 
159.051 121.452 -12.8014 158.738 121.624 -12.6793 158.894 122.783 -13.7563 
159.375 123.25 -14.99 158.843 122.958 -12.7502 159.375 123.25 -12.865 
[...]
POINT_DATA 801
COLOR_SCALARS scalars 1
0.196078 0.196078 0.360784 
0.360784 0.235294 
0.258824 0.427451 
0.470588 0.243137 
0.447059 0.219608 
0.247059 0.4 
0.521569 0.443137 
0.305882 0.313725 
0.529412 0.305882 
0.443137 0.458824 
0.623529 0.309804 
0.454902 0.45098 
0.65098 0.341176 
0.494118 0.419608 
0.584314 0.219608 
0.309804 0.317647 
0.337255 0.231373 
0.207843 0.282353 
0.576471 0.670588 
0.372549 0.278431 
0.239216 0.592157 
0.686275 0.223529 
0.678431 0.321569 
0.298039 0.654902 
0.611765 0.74902 
0.584314 0.196078 
0.258824 0.45098 
0.415686 0.490196 
0.282353 0.411765 
0.25098 0.266667 
0.34902 0.635294 
0.784314 0.631373 
0.364706 0.47451 
0.533333 0.305882 
0.388235 0.321569 
0.2 0.407843 
0.396078 0.666667 
0.741176 0.682353 
0.741176 0.235294 
0.317647 0.572549 
0.643137 0.505882 
0.454902 0.215686 
0.298039 0.607843 
0.207843 0.560784 
0.701961 0.654902 
0.584314 0.235294 
0.282353 0.219608 
0.290196 0.305882 
0.443137 0.321569 
0.207843 0.301961 
0.494118 0.756863 
0.243137 0.768627 
0.368627 0.584314 
0.258824 0.454902 
0.368627 0.556863 
0.380392 0.682353 
0.647059 0.376471 
0.772549 0.392157 
0.32549 0.376471 
0.729412 0.588235 
0.501961 0.203922 
0.27451 0.411765 
0.470588 0.447059 
0.560784 0.439216 
0.596078 0.639216 
0.772549 0.498039 
0.717647 0.196078 
0.270588 0.478431 
0.427451 0.196078 
0.25098 0.498039 
0.694118 0.423529 
0.74902 0.498039 
0.235294 0.403922 
0.713725 0.572549 
0.290196 0.780392 
0.231373 0.290196 
0.568627 0.760784 
0.658824 0.733333 
0.196078 0.345098 
0.266667 0.427451 
0.733333 0.462745 
0.458824 0.215686 
0.478431 0.27451 
0.552941 0.309804 
0.239216 0.333333 
0.737255 0.6 
0.243137 0.227451 
0.294118 0.67451 
0.701961 0.247059 
0.623529 0.486275 
0.329412 0.654902 
0.74902 0.584314 
0.196078 0.341176 
0.247059 0.239216 
0.309804 0.454902 
0.352941 0.266667 
0.34902 0.388235 
0.239216 0.352941 
0.266667 0.513725 
0.388235 0.592157 
0.466667 0.509804 
0.458824 0.231373 
0.32549 0.305882 
0.231373 0.505882 
0.301961 0.266667 
0.34902 0.513725 
0.388235 0.239216 
0.309804 0.352941 
0.266667 0.388235 
0.239216 0.454902 
0.352941 0.32549 
0.231373 0.301961 
0.505882 0.458824 
0.231373 0.588235 
0.458824 0.505882 
0.301961 0.305882 
0.243137 0.301961 
0.607843 0.701961 
0.388235 0.313725 
0.227451 0.4 
0.372549 0.623529 
0.737255 0.760784 
0.745098 0.231373 
0.286275 0.588235 
0.678431 0.317647 
0.694118 0.223529 
0.227451 0.564706 
0.568627 0.435294 
0.407843 0.780392 
0.631373 0.290196 
0.45098 0.513725 
0.670588 0.74902 
0.596078 0.203922 
0.341176 0.25098 
0.403922 0.756863 
0.619608 0.262745 
0.407843 0.266667 
0.215686 0.341176 
0.568627 0.333333 
0.203922 0.211765 
0.207843 0.301961 
0.584314 0.364706 
0.478431 0.239216 
0.196078 0.196078 
0.203922 0.513725 
0.203922 0.305882 
0.423529 0.45098 
0.419608 0.419608 
0.301961 0.505882 
0.301961 0.203922 
0.203922 0.196078 
0.505882 0.203922 
0.203922 0.196078 
0.196078 0.458824 
0.203922 0.262745 
0.203922 0.203922 
0.458824 0.196078 
0.203922 0.345098 
0.443137 0.784314 
0.713725 0.235294 
0.572549 0.541176 
0.207843 0.207843 
0.541176 0.537255 
0.207843 0.537255 
0.207843 0.207843 
0.541176 0.537255 
0.207843 0.760784 
0.643137 0.278431 
0.411765 0.576471 
0.65098 0.65098 
0.576471 0.223529 
0.270588 0.223529 
0.560784 0.560784 
0.223529 0.270588 
0.223529 0.65098 
0.576471 0.223529 
0.560784 0.270588 
0.223529 0.345098 
0.466667 0.392157 
0.243137 0.419608 
0.270588 0.498039 
0.2 0.458824 
0.392157 0.658824 
0.423529 0.521569 
0.207843 0.313725 
0.478431 0.419608 
0.301961 0.505882 
0.301961 0.203922 
0.505882 0.203922 
0.196078 0.458824 
0.203922 0.458824 
0.196078 0.203922 
0.262745 0.262745 
0.239216 0.376471 
0.729412 0.576471 
0.254902 0.537255 
0.639216 0.356863 
0.239216 0.466667 
0.372549 0.6 
0.701961 0.780392 
0.270588 0.439216 
0.4 0.47451 
0.223529 0.282353 
0.458824 0.501961 
0.741176 0.552941 
0.737255 0.262745 
0.376471 0.529412 
0.529412 0.678431 
0.72549 0.619608 
0.219608 0.333333 
0.270588 0.207843 
0.541176 0.537255 
0.207843 0.764706 
0.666667 0.294118 
0.415686 0.65098 
0.576471 0.223529 
0.560784 0.270588 
0.223529 0.211765 
0.227451 0.32549 
0.537255 0.32549 
0.227451 0.211765 
0.592157 0.294118 
0.498039 0.294118 
0.588235 0.482353 
0.298039 0.517647 
0.203922 0.219608 
0.27451 0.529412 
0.207843 0.317647 
0.482353 0.509804 
0.419608 0.301961 
0.505882 0.301961 
0.203922 0.505882 
0.203922 0.196078 
0.458824 0.203922 
0.458824 0.196078 
0.203922 0.262745 
0.227451 0.396078 
0.482353 0.286275 
0.698039 0.772549 
0.247059 0.403922 
0.74902 0.580392 
0.709804 0.658824 
0.219608 0.282353 
0.376471 0.772549 
0.419608 0.321569 
0.207843 0.541176 
0.537255 0.207843 
0.690196 0.580392 
0.537255 0.203922 
0.772549 0.419608 
0.227451 0.305882 
0.65098 0.576471 
0.223529 0.560784 
0.270588 0.223529 
0.427451 0.286275 
0.215686 0.380392 
0.196078 0.243137 
0.776471 0.682353 
0.713725 0.713725 
0.756863 0.572549 
0.427451 0.380392 
0.737255 0.764706 
0.207843 0.537255 
0.537255 0.207843 
0.419608 0.301961 
0.505882 0.301961 
0.203922 0.505882 
0.203922 0.196078 
0.458824 0.203922 
0.458824 0.196078 
0.203922 0.262745 
0.227451 0.227451 
0.282353 0.282353 
0.580392 0.584314 
0.67451 0.67451 
0.286275 0.239216 
0.223529 0.564706 
0.282353 0.223529 
0.223529 0.576471 
0.592157 0.678431 
0.67451 0.576471 
0.247059 0.403922 
0.74902 0.580392 
0.729412 0.588235 
0.486275 0.207843 
0.768627 0.415686 
0.321569 0.384314 
0.207843 0.541176 
0.537255 0.207843 
0.694118 0.607843 
0.243137 0.772549 
0.309804 0.419608 
0.65098 0.576471 
0.223529 0.560784 
0.270588 0.223529 
0.533333 0.431373 
0.537255 0.443137 
0.470588 0.745098 
0.74902 0.768627 
0.27451 0.588235 
0.247059 0.572549 
0.32549 0.639216 
0.211765 0.545098 
0.560784 0.223529 
0.419608 0.301961 
0.505882 0.301961 
0.203922 0.505882 
0.203922 0.196078 
0.458824 0.203922 
0.458824 0.196078 
0.203922 0.262745 
0.290196 0.254902 
0.619608 0.282353 
0.686275 0.67451 
0.223529 0.576471 
0.247059 0.403922 
0.74902 0.576471 
0.223529 0.560784 
0.631373 0.305882 
0.266667 0.635294 
0.368627 0.705882 
0.207843 0.317647 
0.701961 0.392157 
0.466667 0.776471 
0.431373 0.686275 
0.207843 0.541176 
0.537255 0.207843 
0.701961 0.639216 
0.262745 0.772549 
0.313725 0.419608 
0.65098 0.576471 
0.223529 0.560784 
0.270588 0.223529 
0.266667 0.254902 
0.411765 0.576471 
0.639216 0.368627 
0.235294 0.254902 
0.643137 0.380392 
0.360784 0.215686 
0.54902 0.584314 
0.235294 0.419608 
0.301961 0.505882 
0.301961 0.203922 
0.505882 0.203922 
0.537255 0.537255 
0.564706 0.572549 
0.207843 0.207843 
0.227451 0.227451 
0.596078 0.603922 
0.247059 0.243137 
0.196078 0.458824 
0.203922 0.458824 
0.196078 0.203922 
0.262745 0.294118 
0.266667 0.647059 
0.282353 0.690196 
0.67451 0.223529 
0.576471 0.247059 
0.403922 0.74902 
0.576471 0.486275 
0.227451 0.282353 
0.47451 0.772549 
0.560784 0.784314 
0.541176 0.286275 
0.431373 0.384314 
0.541176 0.207843 
0.541176 0.537255 
0.207843 0.666667 
0.627451 0.556863 
0.211765 0.705882 
0.772549 0.254902 
0.282353 0.317647 
0.419608 0.65098 
0.576471 0.223529 
0.560784 0.270588 
0.223529 0.564706 
0.411765 0.282353 
0.498039 0.231373 
0.294118 0.509804 
0.72549 0.741176 
0.74902 0.572549 
0.505882 0.466667 
0.254902 0.560784 
0.329412 0.65098 
0.219608 0.556863 
0.607843 0.25098 
0.419608 0.301961 
0.505882 0.301961 
0.203922 0.505882 
0.203922 0.627451 
0.639216 0.262745 
0.262745 0.196078 
0.458824 0.203922 
0.458824 0.196078 
0.203922 0.262745 
0.407843 0.701961 
0.764706 0.490196 
0.219608 0.443137 
0.27451 0.501961 
0.662745 0.588235 

