# vtk DataFile Version 4.2
vtk output
ASCII
DATASET POLYDATA
POINTS 1234 float
178.482 181.294 -13.7047 180.135 180.982 -13.426 180.103 179.906 -12.5352 
177.851 180.56 -12.3862 177.5 182.5 -15.04 179.896 182.093 -13.6962 
177.5 182.5 -12.54 182.008 180.852 -13.2038 182.32 179.819 -12.5056 
181.94 181.862 -13.2065 179.895 183.089 -12.6621 175.219 182.237 -12.5308 
175.289 183.362 -13.677 174.948 185.078 -13.571 176.626 184.167 -13.8068 
177.426 184.925 -12.5802 182.194 182.858 -12.3823 177.918 178.969 -11.1423 
176.193 179.262 -10.8528 175.413 180.502 -11.5561 180.131 178.573 -11.316 
182.487 178.472 -11.4676 179.877 184.873 -11.6746 182.15 184.178 -11.2877 
183.405 180.91 -12.9549 184.56 180.29 -12.2288 183.393 181.666 -12.8532 
184.569 182.217 -11.8328 184.895 178.567 -11.4278 183.879 183.57 -11.0216 
187.343 180.093 -11.6404 187.44 178.537 -11.2378 187.346 181.644 -11.1536 
185.682 183.124 -10.4972 187.61 182.872 -9.77384 184.764 184.155 -9.60669 
173.602 183.778 -13.1502 172.824 182.778 -12.0122 172.83 185.354 -13.329 
171.91 184.421 -12.5912 170.216 185.279 -12.0248 171.241 186.093 -13.0546 
170.823 187.78 -13.3049 172.651 187.614 -13.4347 174.239 186.751 -13.3496 
175.84 185.862 -13.0216 175.162 187.601 -12.5963 173.605 181.143 -11.1762 
172.758 180.39 -9.67693 171.881 181.901 -10.5876 170.221 182.723 -9.86473 
171.033 183.538 -11.3916 177.235 187.165 -11.4826 179.015 186.337 -11.0056 
169.455 187.485 -12.6101 170.106 190.056 -13.4174 171.85 189.857 -13.316 
169.087 189.21 -12.9662 173.654 188.442 -13.0159 173.21 190.151 -12.6236 
169.378 184.364 -10.5963 167.871 185.243 -9.68812 168.586 186.059 -11.2044 
167.878 187.81 -11.6121 167.822 190.158 -12.4429 174.867 189.783 -11.5497 
176.353 188.808 -10.968 168.783 190.965 -13.224 168.602 192.752 -13.2934 
170.161 192.554 -13.3767 171.497 191.647 -13.1016 172.512 192.541 -12.1184 
173.965 191.615 -11.2208 167.326 192.609 -12.5663 168.374 194.92 -13.2883 
169.636 194.923 -13.306 167.144 194.968 -12.6306 171.122 193.418 -12.8624 
170.754 195.175 -12.6829 166.698 188.641 -10.8886 166.385 190.357 -11.1815 
166.012 192.626 -11.3515 165.871 195.029 -11.543 171.948 195.037 -11.6027 
173.349 193.407 -10.655 174.487 192.512 -9.74535 173.043 195.197 -9.92796 
168.31 196.948 -13.1909 169.36 196.952 -13.1444 167.241 197.273 -12.5831 
170.348 197.282 -12.4298 165.899 197.442 -11.5987 171.45 197.221 -11.3186 
168.408 198.395 -13.0031 169.18 198.404 -12.9054 167.815 199.581 -12.3765 
169.778 199.618 -12.0446 166.067 199.89 -11.5359 171.015 198.963 -11.1432 
166.103 202.481 -11.4295 167.772 202.492 -12.0958 169.497 202.5 -11.8319 
170.733 200.709 -10.9456 171.684 199.948 -9.82515 170.663 202.501 -10.8384 
168.425 206.58 -12.9875 169.173 206.594 -12.9154 169.764 205.392 -12.0334 
167.843 205.396 -12.3257 168.353 207.984 -13.1757 169.329 208.055 -13.2096 
167.356 207.653 -12.4399 170.25 207.795 -12.4109 168.474 209.864 -13.3411 
169.544 210.103 -13.6675 167.443 209.87 -12.3776 170.409 210.1 -12.6258 
166.119 205.057 -11.4066 166.054 207.456 -11.2924 170.728 204.295 -10.9415 
170.993 206.055 -11.1318 171.676 205.059 -9.82061 171.387 207.832 -11.2935 
166.28 209.678 -11.1886 171.778 210.105 -11.5517 168.768 211.549 -13.5544 
170 212.5 -15.04 167.978 212.255 -12.0141 170 212.5 -12.54 
166.669 211.416 -11.0332 172.197 212.725 -12.0833 171.374 213.466 -13.7112 
170.713 214.776 -13.9033 171.864 215.222 -13.8566 169.87 214.838 -12.655 
166.041 212.209 -9.60812 166.994 213.207 -10.5602 168.414 214.846 -11.5119 
167.19 215.076 -9.86002 172.83 215.183 -12.5493 171.213 216.493 -13.8425 
172.5 217.5 -15.04 170.543 217.133 -12.4266 172.5 217.5 -12.54 
173.218 211.697 -10.6176 172.981 209.852 -9.903 173.794 213.518 -11.1664 
174.391 212.542 -9.7173 174.658 215.369 -11.475 168.928 217.082 -11.1958 
174.834 217.671 -12.5144 174.135 218.368 -13.821 173.385 219.616 -13.7129 
175.044 219.956 -13.7067 172.294 219.721 -12.5165 169.27 218.797 -10.8547 
170.531 219.557 -11.5486 175.741 219.26 -12.9931 173.857 221.142 -13.2343 
175.383 221.615 -13.7117 172.983 222.015 -11.9401 176.623 220.875 -13.8133 
177.292 220.201 -12.4855 177.5 222.5 -15.04 176.985 217.992 -11.3619 
176.154 216.291 -10.8895 171.233 221.317 -11.1406 175.27 222.708 -12.5134 
177.5 222.5 -12.54 170.47 222.146 -9.64157 172.017 222.984 -10.4868 
173.668 223.774 -11.1375 175.397 224.482 -11.5335 172.841 224.548 -9.64097 
177.685 224.365 -12.3411 178.662 223.019 -13.6421 179.523 222.714 -12.313 
178.021 223.606 -13.6491 178.84 223.796 -13.3283 179.436 220.537 -11.3081 
178.574 218.911 -10.8248 179.721 224.614 -12.3657 182.067 222.958 -11.2219 
181.156 221.4 -10.791 182.366 225.003 -11.834 176.154 225.845 -10.8429 
177.843 226.286 -11.1554 180.092 226.972 -11.4088 182.646 227.148 -11.7937 
186.372 228.29 -12.8333 187.5 228.28 -12.9103 187.456 227.35 -12.2205 
185.342 227.533 -12.1785 186.39 229.028 -12.7287 187.526 229.124 -12.8969 
185.404 229.548 -11.7812 188.651 228.372 -12.7611 189.708 227.783 -11.8903 
188.652 229.073 -12.83 187.594 229.966 -12.1812 189.695 229.64 -12.1612 
184.962 225.283 -11.4057 187.262 225.907 -11.2057 182.871 228.906 -11.1703 
189.021 226.427 -11.0505 182.552 230.193 -9.75878 184.375 230.542 -10.4858 
186.131 230.926 -10.9831 187.828 231.282 -11.1628 185.312 231.669 -9.61878 
190.025 231.33 -11.3007 190.83 226.807 -10.7928 190.038 225.753 -9.71354 
192.474 228.238 -11.48 192.733 227.005 -10.5312 192.419 229.835 -11.7547 
192.49 231.407 -11.2351 177.683 177.907 -9.59073 175.438 178.66 -9.54423 
174.476 179.755 -10.338 180.107 177.317 -9.67131 175.324 177.806 -7.68232 
173.529 178.596 -7.42275 173.835 179.11 -8.92665 177.441 177.071 -7.73766 
179.245 176.786 -8.26425 182.59 177.26 -10.147 182.813 176.384 -8.80559 
181.028 176.528 -8.65872 180.261 176.257 -7.30701 185.014 177.249 -10.2749 
185.087 176.307 -8.88134 187.493 177.232 -10.257 187.519 176.274 -8.89629 
189.962 178.5 -11.0766 189.988 177.219 -10.2049 189.893 179.966 -11.3073 
189.726 181.268 -10.8064 189.997 176.264 -8.88516 192.479 178.492 -10.9398 
192.481 177.216 -10.1432 192.461 180.02 -11.0219 191.573 181.032 -10.6187 
192.474 176.269 -8.86075 194.979 178.45 -10.8641 194.953 177.223 -10.0678 
194.992 179.797 -10.972 193.318 180.838 -10.4509 194.998 180.779 -10.4019 
192.484 181.689 -9.5842 194.905 176.302 -8.81758 195.001 181.641 -9.32471 
197.461 178.533 -10.7835 197.396 177.28 -9.90582 197.515 180.028 -10.9372 
196.678 180.838 -10.4227 197.184 176.391 -8.73051 197.522 181.679 -9.55293 
199.911 178.614 -10.6702 199.905 177.33 -9.47739 200.025 179.99 -11.0281 
198.416 181.02 -10.5421 200.241 181.229 -10.6155 198.975 176.536 -8.58664 
202.184 178.859 -10.5818 202.359 177.861 -9.40278 202.415 180.127 -10.9925 
202.521 181.511 -10.6712 200.764 176.788 -8.2003 199.743 176.258 -7.284 
202.582 177.05 -7.69394 203.935 179.131 -10.4371 204.644 178.525 -9.38138 
204.862 180.25 -10.7569 204.916 181.806 -10.7433 204.746 177.726 -7.64946 
205.688 179.467 -10.0059 207.217 180.94 -10.521 207.466 179.805 -9.4102 
207.421 182.459 -10.7144 206.29 178.836 -8.82207 206.633 178.394 -7.42531 
172.073 179.689 -7.66406 170.426 180.883 -7.42674 171.065 181.251 -9.0258 
186.578 183.749 -8.98502 189.999 182.263 -9.54157 188.353 183.362 -8.31393 
190.127 183.04 -7.67895 187.281 184.025 -7.43556 192.49 182.477 -7.57409 
195.001 182.283 -7.50032 200.031 182.222 -9.43914 202.502 182.763 -9.51567 
197.516 182.465 -7.56099 199.895 183 -7.63641 201.707 183.269 -8.20017 
204.806 182.961 -9.99804 203.472 183.574 -8.67345 205.204 183.856 -8.94902 
202.768 183.838 -7.31448 206.582 183.249 -10.2018 207.488 184.239 -9.4088 
209.015 181.415 -10.3781 209.804 180.816 -9.37897 209.951 182.636 -10.6334 
208.367 183.65 -10.3979 210.192 184.151 -10.4696 208.192 179.227 -7.72482 
210.087 180.029 -7.64667 210.785 181.858 -10.0055 212.279 183.412 -10.5047 
212.556 182.245 -9.52371 212.518 184.991 -10.6219 211.55 181.24 -8.8516 
212.202 180.847 -7.39035 169.597 182.097 -8.25087 168.382 182.925 -7.42767 
168.746 183.561 -9.029 180.758 185.694 -10.376 182.476 185.241 -9.64159 
179.851 186.863 -9.58749 181.374 186.287 -8.92751 183.189 185.662 -7.70366 
185.043 184.795 -7.56795 181.696 186.601 -7.42223 209.94 185.259 -9.37794 
211.691 185.729 -9.94996 205.091 184.346 -7.34166 207.356 184.925 -7.50192 
209.268 185.703 -7.63247 211.099 186.293 -8.79403 212.641 186.871 -9.35358 
210.792 186.608 -7.3772 214.035 183.926 -10.3945 214.79 183.243 -9.40303 
214.974 185.282 -10.6703 213.464 186.388 -10.3987 215.29 187.237 -10.5964 
213.27 181.721 -8.21771 214.953 182.249 -7.59749 215.765 184.393 -10.0291 
217.207 186.03 -10.5991 217.456 184.81 -9.53377 217.458 187.691 -10.8854 
216.484 183.712 -8.86216 217.049 183.302 -7.38773 167.209 186.938 -10.3644 
166.137 187.92 -9.55908 167.185 184.569 -7.66707 166.093 186.026 -7.42544 
166.6 186.326 -8.93403 178.132 188.034 -9.80491 176.894 189.406 -9.6051 
178.48 188.625 -8.31445 179.835 187.77 -7.53029 177.403 190.017 -7.57259 
214.396 188.019 -9.51407 216.227 188.752 -10.4045 217.792 189.607 -10.6272 
215.685 189.298 -9.36154 212.676 187.748 -7.4743 214.061 188.571 -8.21306 
215.212 189.847 -7.50476 218.787 186.57 -10.4395 219.474 185.965 -9.36135 
219.458 187.957 -10.7343 219.63 189.883 -10.8115 218.098 184.298 -8.17305 
219.576 185.026 -7.45167 220.23 187.232 -9.97475 220.79 188.645 -10.3734 
221.459 188.01 -9.31496 221.105 190.098 -10.4054 220.867 186.669 -8.77036 
221.311 186.356 -7.34615 165.381 190.166 -9.60605 164.795 192.605 -9.68532 
165.3 187.82 -7.68653 164.565 189.937 -7.74166 164.279 191.743 -8.26904 
175.612 190.705 -9.87004 176.17 191.127 -8.38731 175.454 192.666 -7.70662 
217.043 190.415 -9.52055 218.628 191.094 -10.3526 219.936 191.745 -10.4371 
218.178 191.678 -9.32762 216.619 190.898 -8.21813 217.722 192.289 -7.47418 
221.239 191.768 -10.2559 222.32 190.012 -9.21405 222.324 192.007 -9.13284 
222.457 187.852 -7.54572 222.886 189.314 -8.06139 223.132 190.626 -8.37283 
223.421 190.178 -7.20192 223.114 191.659 -8.34687 164.722 195.1 -10.1773 
[...]
POINT_DATA 1234
COLOR_SCALARS scalars 1
0.223529 0.239216 0.505882 
0.47451 0.247059 
0.243137 0.52549 
0.239216 0.505882 
0.223529 0.513725 
0.513725 0.243137 
0.247059 0.227451 
0.482353 0.47451 
0.317647 0.219608 
0.407843 0.368627 
0.380392 0.411765 
0.32549 0.231373 
0.494118 0.196078 
0.419608 0.380392 
0.227451 0.478431 
0.380392 0.376471 
0.643137 0.572549 
0.34902 0.219608 
0.462745 0.247059 
0.52549 0.462745 
0.219608 0.243137 
0.247059 0.223529 
0.52549 0.47451 
0.317647 0.482353 
0.709804 0.529412 
0.345098 0.356863 
0.227451 0.513725 
0.247059 0.227451 
0.52549 0.52549 
0.486275 0.709804 
0.482353 0.317647 
0.407843 0.47451 
0.360784 0.2 
0.223529 0.239216 
0.243137 0.2 
0.423529 0.235294 
0.505882 0.239216 
0.239216 0.509804 
0.521569 0.505882 
0.219608 0.317647 
0.368627 0.380392 
0.376471 0.647059 
0.360784 0.576471 
0.239216 0.223529 
0.505882 0.47451 
0.380392 0.317647 
0.231373 0.196078 
0.494118 0.419608 
0.380392 0.231373 
0.380392 0.486275 
0.396078 0.643137 
0.352941 0.603922 
0.231373 0.196078 
0.419608 0.494118 
0.235294 0.223529 
0.498039 0.470588 
0.223529 0.235294 
0.470588 0.498039 
0.380392 0.368627 
0.643137 0.231373 
0.352941 0.317647 
0.317647 0.376471 
0.196078 0.235294 
0.419608 0.501961 
0.227451 0.423529 
0.2 0.235294 
0.227451 0.498039 
0.34902 0.643137 
0.376471 0.576471 
0.482353 0.223529 
0.243137 0.47451 
0.517647 0.647059 
0.576471 0.235294 
0.360784 0.360784 
0.317647 0.470588 
0.223529 0.243137 
0.247059 0.513725 
0.219608 0.407843 
0.52549 0.215686 
0.243137 0.458824 
0.223529 0.470588 
0.243137 0.352941 
0.196078 0.313725 
0.513725 0.517647 
0.482353 0.698039 
0.313725 0.407843 
0.482353 0.47451 
0.219608 0.470588 
0.223529 0.235294 
0.352941 0.196078 
0.498039 0.356863 
0.196078 0.47451 
0.219608 0.32549 
0.407843 0.47451 
0.235294 0.223529 
0.47451 0.498039 
0.215686 0.235294 
0.458824 0.196078 
0.419608 0.231373 
0.498039 0.494118 
0.407843 0.32549 
0.356863 0.231373 
0.545098 0.701961 
0.309804 0.368627 
0.47451 0.380392 
0.643137 0.352941 
0.388235 0.592157 
0.486275 0.380392 
0.482353 0.337255 
0.627451 0.564706 
0.462745 0.309804 
0.203922 0.623529 
0.709804 0.584314 
0.25098 0.239216 
0.337255 0.584314 
0.25098 0.580392 
0.25098 0.372549 
0.568627 0.443137 
0.313725 0.25098 
0.360784 0.54902 
0.392157 0.227451 
0.247059 0.352941 
0.541176 0.364706 
0.6 0.560784 
0.34902 0.247059 
0.286275 0.360784 
0.54902 0.392157 
0.596078 0.247059 
0.34902 0.360784 
0.54902 0.435294 
0.227451 0.313725 
0.239216 0.313725 
0.478431 0.435294 
0.356863 0.690196 
0.337255 0.615686 
0.219608 0.337255 
0.380392 0.360784 
0.458824 0.580392 
0.301961 0.462745 
0.352941 0.207843 
0.309804 0.623529 
0.407843 0.286275 
0.258824 0.482353 
0.717647 0.611765 
0.356863 0.462745 
0.388235 0.478431 
0.54902 0.462745 
0.607843 0.690196 
0.54902 0.239216 
0.262745 0.333333 
0.541176 0.333333 
0.219608 0.333333 
0.352941 0.219608 
0.301961 0.6 
0.458824 0.537255 
0.345098 0.529412 
0.372549 0.25098 
0.356863 0.67451 
0.407843 0.286275 
0.631373 0.498039 
0.352941 0.207843 
0.631373 0.462745 
0.301961 0.462745 
0.572549 0.364706 
0.447059 0.592157 
0.207843 0.345098 
0.298039 0.298039 
0.458824 0.4 
0.223529 0.341176 
0.67451 0.588235 
0.611765 0.337255 
0.517647 0.407843 
0.286275 0.392157 
0.627451 0.337255 
0.623529 0.309804 
0.203922 0.54902 
0.305882 0.694118 
0.47451 0.427451 
0.521569 0.196078 
0.345098 0.301961 
0.470588 0.662745 
0.423529 0.223529 
0.345098 0.384314 
0.431373 0.658824 
0.466667 0.588235 
0.27451 0.419608 
0.34902 0.196078 
0.282353 0.482353 
0.564706 0.462745 
0.623529 0.709804 
0.54902 0.694118 
0.490196 0.529412 
0.223529 0.372549 
0.345098 0.67451 
0.470588 0.337255 
0.537255 0.517647 
0.545098 0.678431 
0.235294 0.329412 
0.231373 0.584314 
0.337255 0.239216 
0.25098 0.258824 
0.364706 0.568627 
0.254902 0.247059 
0.388235 0.713725 
0.513725 0.376471 
0.658824 0.329412 
0.509804 0.584314 
0.25098 0.486275 
0.721569 0.615686 
0.584314 0.25098 
0.466667 0.584314 
0.25098 0.290196 
0.392157 0.580392 
0.25098 0.564706 
0.239216 0.486275 
0.333333 0.705882 
0.615686 0.486275 
0.466667 0.615686 
0.721569 0.462745 
0.258824 0.364706 
0.258824 0.356863 
0.486275 0.721569 
0.615686 0.54902 
0.301961 0.486275 
0.694118 0.411765 
0.337255 0.447059 
0.537255 0.298039 
0.67451 0.396078 
0.309804 0.294118 
0.45098 0.478431 
0.4 0.298039 
0.611765 0.454902 
0.517647 0.341176 
0.443137 0.392157 
0.219608 0.333333 
0.294118 0.25098 
0.356863 0.607843 
0.388235 0.294118 
0.588235 0.415686 
0.592157 0.458824 
0.627451 0.203922 
0.286275 0.537255 
0.301961 0.67451 
0.411765 0.196078 
0.298039 0.34902 
0.533333 0.298039 
0.196078 0.34902 
0.458824 0.458824 
0.321569 0.65098 
0.392157 0.662745 
0.392157 0.6 
0.490196 0.207843 
0.301961 0.611765 
0.27451 0.368627 
0.545098 0.227451 
0.34902 0.690196 
0.47451 0.537255 
0.301961 0.196078 
0.356863 0.458824 
0.486275 0.4 
0.666667 0.4 
0.219608 0.337255 
0.623529 0.447059 
0.627451 0.337255 
0.611765 0.203922 
0.286275 0.627451 
0.498039 0.207843 
0.301961 0.545098 
0.360784 0.235294 
0.4 0.447059 
0.454902 0.4 
0.678431 0.47451 
0.282353 0.611765 
0.431373 0.196078 
0.27451 0.494118 
0.627451 0.45098 
0.627451 0.207843 
0.34902 0.301961 
0.227451 0.631373 
0.466667 0.270588 
0.372549 0.611765 
0.580392 0.380392 
0.447059 0.4 
0.368627 0.313725 
0.372549 0.270588 
0.219608 0.611765 
0.337255 0.756863 
0.556863 0.447059 
0.47451 0.686275 
0.290196 0.396078 
0.380392 0.584314 
0.482353 0.380392 
0.25098 0.380392 
0.580392 0.482353 
0.380392 0.25098 
0.380392 0.580392 
0.47451 0.368627 
0.25098 0.313725 
0.227451 0.611765 
0.560784 0.34902 
0.254902 0.482353 
0.705882 0.611765 
0.364706 0.564706 
0.580392 0.603922 
0.705882 0.239216 
0.25098 0.333333 
0.584314 0.25098 
0.584314 0.25098 
0.580392 0.25098 
0.564706 0.239216 
0.482353 0.705882 
0.619608 0.337255 
0.47451 0.34902 
0.34902 0.454902 
0.411765 0.282353 
0.466667 0.466667 
0.34902 0.466667 
0.34902 0.466667 
0.34902 0.462745 
0.345098 0.462745 
0.345098 0.462745 
0.454902 0.282353 
0.411765 0.596078 
0.454902 0.729412 
0.72549 0.552941 
0.721569 0.596078 
0.454902 0.713725 
0.596078 0.341176 
0.196078 0.270588 
0.698039 0.564706 
0.372549 0.501961 
0.564706 0.694118 
0.270588 0.372549 
0.486275 0.270588 
0.376471 0.552941 
0.729412 0.454902 
0.713725 0.568627 
0.419608 0.466667 
0.447059 0.478431 
0.556863 0.690196 
0.415686 0.682353 
0.509804 0.203922 
0.32549 0.596078 
0.72549 0.211765 
0.603922 0.352941 
0.6 0.211765 
0.352941 0.592157 
0.4 0.643137 
0.254902 0.356863 
0.411765 0.282353 
0.215686 0.572549 
0.360784 0.568627 
0.211765 0.356863 
0.619608 0.494118 
0.6 0.282353 
0.4 0.266667 
0.443137 0.45098 
0.4 0.34902 
0.34902 0.454902 
0.466667 0.466667 
0.27451 0.380392 
0.627451 0.247059 
0.258824 0.368627 
0.635294 0.415686 
0.34902 0.466667 
0.701961 0.568627 
0.34902 0.466667 
0.501961 0.34902 
0.462745 0.568627 
0.447059 0.701961 
0.270588 0.372549 
0.27451 0.380392 
0.698039 0.564706 
0.466667 0.490196 
0.615686 0.207843 
0.337255 0.270588 
0.372549 0.560784 
0.482353 0.698039 
0.243137 0.380392 
0.309804 0.478431 
0.278431 0.698039 
0.545098 0.52549 
0.745098 0.486275 
0.721569 0.47451 
0.701961 0.411765 
0.584314 0.384314 
0.741176 0.521569 
0.729412 0.47451 
0.415686 0.690196 
0.454902 0.203922 
0.329412 0.733333 
0.482353 0.709804 
0.54902 0.690196 
0.384314 0.596078 
0.415686 0.713725 
0.568627 0.74902 
0.572549 0.376471 
0.54902 0.713725 
0.415686 0.486275 
0.34902 0.466667 
0.34902 0.466667 
0.34902 0.466667 
0.486275 0.27451 
0.647059 0.376471 
0.596078 0.203922 
0.329412 0.27451 
0.698039 0.545098 
0.380392 0.513725 
0.690196 0.266667 
0.372549 0.282353 
0.721569 0.603922 
0.415686 0.490196 
0.34902 0.34902 
0.447059 0.466667 
0.466667 0.34902 
0.466667 0.34902 
0.466667 0.458824 
0.545098 0.443137 
0.313725 0.576471 
0.580392 0.580392 
0.580392 0.580392 
0.580392 0.580392 
0.580392 0.576471 
0.545098 0.313725 
0.447059 0.2 
0.301961 0.6 
0.443137 0.305882 
0.2 0.6 
0.301961 0.321569 
0.454902 0.698039 
0.486275 0.698039 
0.443137 0.305882 
0.25098 0.666667 
0.611765 0.333333 
0.666667 0.25098 
0.333333 0.207843 
0.615686 0.305882 
0.482353 0.235294 
0.317647 0.254902 
0.670588 0.576471 
0.341176 0.47451 
0.47451 0.560784 
0.596078 0.666667 
0.254902 0.345098 
0.627451 0.45098 
0.717647 0.517647 
0.6 0.301961 
0.2 0.313725 
0.733333 0.537255 
0.494118 0.533333 
0.729412 0.498039 
0.196078 0.266667 
0.713725 0.505882 
0.713725 0.498039 
0.458824 0.560784 
0.572549 0.443137 
0.545098 0.576471 
0.580392 0.211765 
0.313725 0.729412 
0.521569 0.533333 
0.580392 0.619608 
0.486275 0.2 
0.278431 0.278431 
0.411765 0.580392 
0.25098 0.333333 
0.494118 0.572549 
0.580392 0.670588 
0.615686 0.580392 
0.670588 0.560784 
0.25098 0.333333 
0.47451 0.247059 
0.333333 0.486275 
0.619608 0.207843 
0.305882 0.666667 
0.576471 0.47451 
0.462745 0.635294 
0.254902 0.337255 
0.337255 0.262745 
0.380392 0.603922 
0.333333 0.25098 
0.247059 0.435294 
0.517647 0.364706 
0.564706 0.541176 
0.239216 0.321569 
0.564706 0.294118 
0.231373 0.309804 
0.435294 0.647059 
0.478431 0.576471 
0.254902 0.337255 
0.556863 0.290196 
0.227451 0.713725 
0.533333 0.207843 
0.27451 0.635294 
0.45098 0.721569 
0.533333 0.556863 
0.294118 0.231373 
0.247059 0.333333 
0.545098 0.207843 
0.27451 0.254902 
0.345098 0.568627 
0.34902 0.270588 
0.647059 0.47451 
0.478431 0.647059 
0.247059 0.333333 
0.670588 0.596078 
0.580392 0.580392 
0.580392 0.596078 
0.67451 0.741176 
0.47451 0.533333 
0.721569 0.45098 
0.243137 0.647059 
0.321569 0.627451 
0.235294 0.317647 
0.317647 0.207843 
0.619608 0.486275 
0.305882 0.47451 
0.560784 0.580392 
0.580392 0.580392 
0.580392 0.576471 
0.545098 0.447059 
0.729412 0.823529 
0.835294 0.909804 
0.956863 0.862745 
0.972549 0.870588 
0.972549 0.870588 
0.964706 0.866667 
0.952941 0.862745 
0.92549 0.854902 
0.882353 0.85098 
0.862745 0.854902 
0.882353 0.854902 
0.921569 0.823529 
0.929412 0.729412 
0.890196 0.827451 
0.729412 0.866667 
0.94902 0.980392 
0.988235 0.980392 
0.94902 0.901961 
0.858824 0.784314 
0.780392 0.847059 
0.858824 0.862745 
0.866667 0.85098 
0.776471 0.835294 
0.94902 0.988235 
0.988235 0.960784 
0.905882 0.8 
0.788235 0.878431 
0.901961 0.847059 
0.729412 0.909804 
0.980392 0.988235 
0.956863 0.87451 
0.862745 0.917647 
0.886275 0.745098 
0.823529 0.956863 
0.988235 0.964706 
0.87451 0.866667 
0.929412 0.843137 
0.862745 0.976471 
0.984314 0.917647 
0.74902 0.878431 
0.843137 0.870588 
0.976471 0.972549 
0.870588 0.741176 
0.764706 0.870588 
0.972549 0.945098 
0.784314 0.870588 
0.964706 0.901961 
0.870588 0.960784 
0.882353 0.870588 
0.964706 0.901961 
0.854902 0.968627 
0.945098 0.784314 
0.784314 0.945098 
0.968627 0.870588 
0.901961 0.972549 
0.917647 0.741176 
0.858824 0.968627 
0.960784 0.858824 
0.478431 0.701961 
0.788235 0.807843 
0.784314 0.945098 
0.984314 0.945098 
0.811765 0.792157 
0.894118 0.811765 
0.886275 0.976471 
0.984314 0.937255 
0.811765 0.796078 
0.917647 0.890196 
0.768627 0.92549 
0.976471 0.980392 
0.945098 0.858824 
0.796078 0.929412 
0.933333 0.796078 
0.768627 0.886275 
0.945098 0.972549 
0.956863 0.901961 
0.8 0.815686 
0.929412 0.956863 
0.878431 0.796078 
0.901961 0.956863 
0.968627 0.945098 
0.901961 0.87451 
0.890196 0.870588 
0.929412 0.933333 
0.878431 0.854902 
0.937255 0.968627 
0.964706 0.960784 
0.870588 0.960784 
0.870588 0.960784 
0.866667 0.956863 
0.937255 0.901961 
0.862745 0.784314 
0.780392 0.854902 
0.870588 0.870588 
0.870588 0.870588 
0.862745 0.823529 
0.733333 
