# vtk DataFile Version 4.2
vtk output
ASCII
DATASET POLYDATA
POINTS 1049 float
222.175 176.593 -20.3114 222.727 176.555 -20.3627 222.988 175.851 -19.372 
221.821 175.978 -19.3329 222.159 177.617 -20.5563 223.07 177.589 -20.7188 
221.444 177.489 -19.6435 223.496 176.924 -20.0731 222.205 179.025 -20.635 
223.082 179.045 -20.8974 221.483 179.172 -19.6939 223.84 178.096 -20.5094 
224.305 177.611 -19.5436 223.912 179.186 -20.5962 222.461 174.925 -18.6813 
221.913 174.981 -18.6711 221.566 174.638 -17.543 220.857 175.702 -17.8144 
220.633 177.422 -18.323 223.396 175.182 -17.7529 222.494 174.535 -17.5471 
223.955 176.419 -19.0054 224.367 176.129 -17.6697 220.659 179.23 -18.3429 
222.365 180.123 -20.4812 223.1 180.232 -20.6467 221.966 180.807 -19.5017 
223.819 180.184 -20.4589 220.958 181.079 -17.8714 224.563 179.281 -19.6027 
224.214 180.843 -19.4653 225.217 177.636 -17.6878 225.39 179.389 -18.1174 
225.204 181.123 -17.7893 223.105 181.141 -19.8188 222.259 181.94 -18.8283 
223.111 182.123 -18.9271 221.857 182.421 -17.6263 223.954 181.944 -18.8035 
224.339 182.407 -17.573 222.547 174.106 -15.793 221.151 174.066 -15.7007 
220.52 174.968 -16.4376 223.617 174.752 -16.0234 219.756 175.519 -15.5713 
220.08 176.14 -16.9023 219.903 177.474 -17.0531 224.629 175.676 -15.8573 
219.914 179.147 -17.0581 225.541 176.957 -15.7907 225.983 178.382 -16.794 
226.24 178.162 -15.4919 226.106 179.496 -16.9049 220.118 180.542 -16.9205 
225.996 180.655 -16.8353 219.789 181.224 -15.5802 220.609 181.959 -16.4673 
221.33 183.334 -15.7327 225.537 181.939 -16.3829 226.267 181.227 -15.503 
224.802 183.236 -15.5955 223.103 182.797 -17.6501 223.076 183.64 -16.0175 
161.419 217.557 -17.9845 162.158 217.737 -18.125 161.964 216.872 -17.098 
160.929 217.036 -17.005 161.52 218.105 -18.0608 162.423 218.764 -18.2629 
161.087 218.091 -17.1929 163.077 218.072 -18.1429 163.24 217.586 -17.2599 
163.862 219.133 -18.3297 161.832 219.097 -17.3416 163.12 219.861 -18.2275 
164.397 220.588 -18.4012 162.742 220.169 -17.3488 161.314 216.144 -16.4323 
160.74 216.2 -16.3644 160.25 215.84 -15.1276 159.982 216.896 -15.413 
160.526 218.231 -15.6319 162.395 216.384 -15.7399 161.392 215.796 -15.3274 
163.579 217.163 -15.7373 161.396 219.363 -15.8873 162.37 220.493 -15.7901 
164.326 218.559 -17.382 165.129 219.87 -18.299 165.464 219.536 -17.39 
165.992 221.049 -18.5752 164.676 218.172 -15.9243 165.806 219.195 -15.8125 
212.761 218.287 -18.0659 213.149 218.28 -18.061 213.446 217.957 -17.2173 
212.742 217.893 -17.1935 212.326 218.99 -18.1823 213.044 218.887 -18.1405 
211.975 218.59 -17.2732 213.564 218.826 -17.226 211.317 219.474 -17.1714 
211.671 219.488 -18.0293 211.613 219.996 -17.9648 212.224 219.85 -18.0831 
212.856 219.57 -18.0582 213.106 219.851 -17.188 214.074 217.212 -15.5864 
212.759 217.151 -15.4438 211.657 218.205 -15.7858 214.303 218.69 -15.5796 
210.789 219.311 -15.6081 213.588 220.145 -15.6299 163.894 221.117 -17.419 
165.3 221.661 -18.4008 166.561 222.169 -18.8582 165.098 222.053 -17.4262 
163.539 221.501 -15.929 164.804 222.497 -15.7675 166.481 220.664 -17.5166 
167.347 221.977 -18.9558 167.543 221.808 -17.6846 168.438 223.125 -20.335 
166.822 220.35 -15.971 167.808 221.551 -15.8643 211.18 220.51 -17.0011 
212.13 220.648 -17.0736 210.247 220.691 -15.4177 211.011 221.394 -16.3795 
211.567 221.436 -16.4259 210.506 221.863 -15.1665 212.589 221.143 -15.6974 
211.641 221.878 -15.2998 166.616 222.706 -17.6349 168.438 223.125 -18.1475 
166.512 223.313 -15.7963 168.438 223.125 -15.96 169.461 223.808 -18.8677 
170.128 223.986 -17.5061 169.124 223.953 -18.9007 169.735 224.311 -18.5252 
169.194 224.31 -17.6139 170.347 223.456 -15.7446 168.686 224.926 -15.663 
170.564 225.083 -17.4816 171.696 224.571 -16.9284 172.069 224.142 -15.6204 
172.809 225.749 -17.4037 169.998 225.642 -16.3226 171.51 226.363 -16.9275 
173.24 227.088 -17.4186 170.795 226.769 -15.6053 173.675 226.458 -18.4867 
174.314 226.751 -18.8943 174.274 226.439 -17.6351 173.947 227.009 -18.8298 
175 227.5 -20.335 175 227.5 -18.1475 175.589 227.899 -18.8756 
175.861 227.837 -17.5742 175.288 228.065 -18.8365 175.671 228.192 -18.4672 
175.057 228.23 -17.4457 173.402 225.05 -15.8965 174.943 225.934 -15.8464 
175.572 226.953 -16.576 172.385 227.672 -15.8109 173.941 228.017 -16.8964 
173.588 228.422 -15.554 176.666 227.447 -15.6296 175.864 228.303 -17.3327 
176.513 228.525 -15.3991 175.064 228.733 -15.5853 221.204 173.109 -13.4689 
219.773 173.634 -13.1976 220.146 174.271 -14.8964 222.911 173.622 -13.6668 
223.797 174.433 -14.5084 224.779 175.152 -13.7667 219.373 177.352 -15.5742 
219.382 179.273 -15.569 219.105 175.355 -13.6995 218.808 177.289 -13.8521 
218.815 179.314 -13.8184 225.762 176.559 -13.9077 226.469 177.892 -13.6576 
219.117 181.356 -13.6428 226.498 179.595 -15.4469 226.827 179.532 -13.5669 
226.727 181.234 -13.5332 220.206 182.702 -14.9842 219.781 183.307 -13.4445 
225.892 182.474 -14.915 226.241 182.72 -13.4269 220.745 184.082 -14.1845 
221.862 184.567 -14.6332 223.023 184.694 -14.7167 221.35 185.305 -13.1585 
224.116 184.426 -14.6227 225.356 183.897 -13.5519 224.34 184.995 -13.271 
160.241 215.172 -13.4711 159.233 215.543 -13.1808 159.431 215.802 -14.3901 
159.3 216.369 -14.4787 161.763 215.349 -13.5337 162.71 216.08 -14.3773 
158.992 216.637 -13.2704 159.537 217.361 -14.1838 160.026 218.639 -13.6145 
163.974 216.75 -13.6772 161.08 219.634 -14.4441 161.963 220.876 -13.6966 
164.96 217.884 -14.4714 166.204 218.801 -13.7091 214.369 215.837 -14.4353 
213.418 216.067 -14.4885 213.195 215.588 -13.194 211.956 216.853 -13.5329 
211.251 217.945 -14.3715 215.22 216.868 -14.5014 215.293 215.805 -14.0952 
215.126 217.994 -14.5861 210.253 218.9 -13.5937 214.729 219.304 -14.2462 
215.543 218.455 -13.3195 214.086 220.681 -13.5974 163.22 221.799 -14.4662 
164.243 222.957 -13.6714 167.139 220.034 -14.4894 168.367 220.971 -13.7188 
209.777 220.22 -14.1747 209.163 221.03 -13.2399 209.535 221.289 -14.4713 
209.642 221.977 -14.3732 212.914 221.551 -14.3066 211.969 222.578 -13.3881 
165.698 223.697 -14.3671 167.179 224.362 -15.0412 166.455 224.706 -13.5369 
169.162 222.259 -14.4806 170.673 222.687 -13.7402 209.317 222.48 -13.0675 
210.436 222.779 -13.6405 172.749 223.697 -13.7094 167.949 225.645 -13.7807 
169.508 226.189 -14.9805 169.148 226.682 -13.5226 173.76 224.55 -14.5119 
175.131 225.003 -13.863 170.723 227.666 -13.6654 172.028 228.123 -14.4119 
173.051 228.839 -13.6427 176.228 226.418 -15.0561 176.899 225.949 -13.5365 
175.004 229.286 -13.6201 176.795 229.212 -13.5235 177.486 226.961 -14.1948 
177.795 227.838 -14.5275 178.595 227.495 -13.2082 177.708 228.446 -14.429 
178.39 228.729 -13.0144 220.681 172.409 -12.382 219.998 172.615 -12.299 
219.762 172.33 -11.0403 218.805 173.515 -11.2503 218.384 175.323 -11.9663 
221.681 172.527 -12.0622 220.981 172.02 -11.1149 222.868 172.853 -11.4315 
218.191 177.261 -12.1663 224.036 174.14 -12.9466 224.261 173.895 -11.3323 
218.202 179.284 -12.0673 225.428 175.241 -11.52 226.011 176.381 -12.3255 
226.664 177.453 -11.5103 218.389 181.388 -11.5576 227.142 179.432 -11.4202 
227.086 181.305 -11.4126 219.057 183.376 -11.4379 226.537 183.008 -11.4926 
220.231 184.623 -12.6922 219.827 184.946 -11.2694 225.71 184.317 -11.6783 
224.66 185.606 -11.4181 222.986 185.627 -13.1791 220.771 185.91 -11.4456 
221.838 186.265 -12.2798 222.593 186.37 -12.2903 221.678 186.641 -11.082 
223.567 186.115 -11.9733 222.959 186.733 -11.0982 160.085 214.478 -11.6542 
158.911 214.974 -11.1828 158.568 216.407 -11.2938 161.562 214.536 -11.2582 
159.151 217.69 -12.7724 158.854 217.738 -11.2421 162.962 215.733 -12.8722 
163.058 215.366 -11.2618 214.608 214.784 -12.9505 216.069 215.054 -12.8556 
214.092 214.206 -11.4409 212.951 215.076 -11.4144 211.808 216.263 -11.4459 
216.203 213.86 -12.103 215.31 213.89 -12.1723 215.081 213.5 -11.0413 
210.765 217.373 -11.3009 210.94 217.656 -12.861 216.011 216.73 -13.1542 
216.92 214.412 -12.0494 216.885 213.827 -11.8253 216.866 215.424 -11.8872 
217.384 214.729 -11.002 216.833 216.713 -11.484 216.235 218.408 -11.4044 
159.626 218.925 -11.4162 160.784 219.907 -12.9092 160.55 220.108 -11.309 
164.265 216.366 -11.4347 165.236 217.602 -12.9294 165.439 217.378 -11.3169 
215.129 219.727 -12.7916 215.486 219.861 -11.2778 161.63 221.194 -11.4481 
162.925 222.086 -12.9234 162.701 222.31 -11.3158 166.532 218.476 -11.4529 
167.443 219.74 -12.9393 167.691 219.52 -11.3248 209.852 218.573 -11.4059 
209.01 219.786 -11.2183 209.359 219.874 -12.7544 213.237 221.908 -12.8127 
214.511 221.061 -11.4146 213.492 222.192 -11.2652 163.871 223.347 -11.4407 
165.193 224.083 -12.87 165.038 224.434 -11.3053 168.841 220.592 -11.4701 
169.738 221.714 -12.9668 170.149 221.516 -11.394 208.541 221.178 -11.2423 
208.59 222.64 -11.1911 209.446 223.438 -12.2961 210.236 223.635 -12.4571 
209.122 223.706 -10.9995 211.159 223.522 -12.4072 212.344 223.104 -11.3215 
211.249 223.863 -11.0713 166.463 225.509 -11.4638 167.622 226.092 -12.279 
168.544 227.016 -11.5377 171.348 222.364 -11.7208 172.971 223.119 -11.5668 
174.253 224.15 -13.0094 174.853 223.867 -11.4076 170.099 227.976 -11.6968 
171.688 228.5 -12.9281 171.399 228.793 -11.3886 175.725 224.609 -12.3071 
177.136 225.073 -11.609 178.202 226.461 -12.7374 178.784 226.042 -11.2669 
173.072 229.455 -11.4948 175.037 229.988 -11.4921 176.939 229.937 -11.7225 
178.672 229.62 -11.1617 179.276 227.018 -11.9258 179.534 227.882 -12.2729 
179.992 227.572 -11.0636 179.436 228.502 -12.2127 179.801 228.714 -11.0026 
158.343 165.513 -11.7205 159.452 165.247 -11.7112 159.602 164.264 -10.7244 
157.852 164.972 -10.8079 157.771 166.568 -11.9765 159.287 166.39 -11.9347 
157.114 166.004 -11.3692 160.397 165.145 -11.5392 161.165 164.552 -10.5766 
160.272 165.853 -11.6394 155.917 166.66 -10.7662 156.639 167.095 -11.7398 
156.489 168.084 -11.8136 157.629 167.986 -11.956 158.783 167.517 -11.8063 
159.894 166.87 -11.3809 160.824 166.124 -10.7757 159.329 168.048 -10.8823 
157.812 164.071 -9.10789 156.341 165.064 -9.02149 156.617 165.479 -10.3258 
[...]
POINT_DATA 1049
COLOR_SCALARS scalars 1
0.219608 0.227451 0.372549 
0.360784 0.258824 
0.309804 0.427451 
0.509804 0.270588 
0.337255 0.443137 
0.219608 0.360784 
0.262745 0.196078 
0.227451 0.317647 
0.505882 0.596078 
0.521569 0.270588 
0.219608 0.305882 
0.619608 0.254902 
0.32549 0.423529 
0.254902 0.588235 
0.431373 0.423529 
0.505882 0.6 
0.588235 0.537255 
0.313725 0.4 
0.435294 0.313725 
0.439216 0.352941 
0.419608 0.615686 
0.619608 0.333333 
0.239216 0.262745 
0.376471 0.266667 
0.588235 0.2 
0.25098 0.254902 
0.254902 0.25098 
0.341176 0.698039 
0.545098 0.686275 
0.321569 0.52549 
0.556863 0.666667 
0.27451 0.313725 
0.439216 0.384314 
0.2 0.321569 
0.278431 0.207843 
0.290196 0.32549 
0.45098 0.207843 
0.321569 0.290196 
0.258824 0.298039 
0.388235 0.482353 
0.356863 0.537255 
0.337255 0.368627 
0.54902 0.368627 
0.45098 0.207843 
0.290196 0.317647 
0.552941 0.368627 
0.223529 0.27451 
0.384314 0.309804 
0.321569 0.290196 
0.447059 0.403922 
0.278431 0.2 
0.27451 0.313725 
0.2 0.278431 
0.490196 0.392157 
0.545098 0.505882 
0.360784 0.356863 
0.45098 0.2 
0.286275 0.278431 
0.54902 0.360784 
0.439216 0.196078 
0.27451 0.262745 
0.541176 0.356863 
0.384314 0.435294 
0.486275 0.298039 
0.258824 0.4 
0.537255 0.341176 
0.396078 0.364706 
0.501961 0.47451 
0.196078 0.27451 
0.196078 0.258824 
0.270588 0.372549 
0.384314 0.364706 
0.196078 0.27451 
0.396078 0.478431 
0.262745 0.403922 
0.360784 0.286275 
0.223529 0.309804 
0.290196 0.309804 
0.435294 0.25098 
0.34902 0.211765 
0.211765 0.294118 
0.505882 0.407843 
0.545098 0.509804 
0.2 0.278431 
0.462745 0.298039 
0.384314 0.380392 
0.529412 0.372549 
0.254902 0.435294 
0.686275 0.435294 
0.356863 0.360784 
0.439216 0.458824 
0.458824 0.635294 
0.298039 0.443137 
0.32549 0.396078 
0.392157 0.266667 
0.356863 0.239216 
0.286275 0.639216 
0.286275 0.345098 
0.411765 0.262745 
0.592157 0.356863 
0.486275 0.313725 
0.223529 0.243137 
0.419608 0.623529 
0.329412 0.576471 
0.439216 0.45098 
0.631373 0.45098 
0.635294 0.45098 
0.356863 0.227451 
0.282353 0.466667 
0.631373 0.305882 
0.262745 0.258824 
0.443137 0.596078 
0.352941 0.439216 
0.631373 0.443137 
0.627451 0.443137 
0.584314 0.341176 
0.247059 0.239216 
0.623529 0.427451 
0.6 0.278431 
0.384314 0.584314 
0.482353 0.352941 
0.509804 0.368627 
0.517647 0.196078 
0.309804 0.607843 
0.513725 0.47451 
0.611765 0.368627 
0.282353 0.403922 
0.466667 0.47451 
0.584314 0.270588 
0.419608 0.239216 
0.360784 0.290196 
0.231373 0.329412 
0.486275 0.54902 
0.643137 0.392157 
0.517647 0.560784 
0.219608 0.270588 
0.560784 0.498039 
0.686275 0.341176 
0.541176 0.462745 
0.462745 0.45098 
0.337255 0.215686 
0.294118 0.658824 
0.447059 0.478431 
0.541176 0.215686 
0.243137 0.329412 
0.611765 0.360784 
0.584314 0.403922 
0.419608 0.505882 
0.203922 0.262745 
0.219608 0.278431 
0.462745 0.415686 
0.568627 0.337255 
0.545098 0.290196 
0.27451 0.368627 
0.286275 0.231373 
0.431373 0.239216 
0.196078 0.568627 
0.364706 0.556863 
0.447059 0.521569 
0.223529 0.278431 
0.529412 0.223529 
0.282353 0.203922 
0.262745 0.529412 
0.223529 0.278431 
0.529412 0.223529 
0.282353 0.521569 
0.262745 0.203922 
0.219608 0.521569 
0.278431 0.52549 
0.207843 0.270588 
0.533333 0.247059 
0.321569 0.431373 
0.466667 0.231373 
0.290196 0.329412 
0.196078 0.513725 
0.254902 0.490196 
0.65098 0.423529 
0.596078 0.462745 
0.243137 0.317647 
0.588235 0.227451 
0.305882 0.623529 
0.52549 0.278431 
0.396078 0.458824 
0.556863 0.568627 
0.482353 0.572549 
0.231373 0.356863 
0.207843 0.317647 
0.231373 0.278431 
0.454902 0.376471 
0.329412 0.321569 
0.533333 0.25098 
0.407843 0.227451 
0.411765 0.254902 
0.313725 0.32549 
0.254902 0.521569 
0.368627 0.415686 
0.521569 0.313725 
0.227451 0.631373 
0.305882 0.254902 
0.352941 0.223529 
0.231373 0.227451 
0.564706 0.321569 
0.509804 0.313725 
0.509804 0.25098 
0.227451 0.407843 
0.533333 0.368627 
0.572549 0.309804 
0.223529 0.345098 
0.305882 0.227451 
0.572549 0.313725 
0.423529 0.564706 
0.509804 0.490196 
0.431373 0.603922 
0.254902 0.317647 
0.258824 0.196078 
0.215686 0.215686 
0.603922 0.32549 
0.556863 0.2 
0.235294 0.215686 
0.203922 0.388235 
0.533333 0.533333 
0.262745 0.643137 
0.545098 0.388235 
0.372549 0.72549 
0.541176 0.670588 
0.439216 0.227451 
0.301961 0.482353 
0.423529 0.309804 
0.560784 0.462745 
0.678431 0.423529 
0.396078 0.282353 
0.490196 0.368627 
0.32549 0.223529 
0.282353 0.490196 
0.505882 0.243137 
0.321569 0.588235 
0.298039 0.337255 
0.607843 0.337255 
0.619608 0.341176 
0.682353 0.541176 
0.603922 0.337255 
0.607843 0.341176 
0.603922 0.321569 
0.321569 0.607843 
0.337255 0.619608 
0.396078 0.52549 
0.580392 0.603922 
0.337255 0.607843 
0.333333 0.705882 
0.560784 0.427451 
0.6 0.317647 
0.596078 0.243137 
0.317647 0.392157 
0.219608 0.286275 
0.388235 0.490196 
0.537255 0.701961 
0.380392 0.643137 
0.517647 0.219608 
0.298039 0.545098 
0.643137 0.223529 
0.243137 0.270588 
0.211765 0.6 
0.427451 0.262745 
0.478431 0.423529 
0.313725 0.427451 
0.27451 0.223529 
0.52549 0.423529 
0.219608 0.415686 
0.298039 0.603922 
0.384314 0.662745 
0.388235 0.603922 
0.392157 0.478431 
0.580392 0.541176 
0.666667 0.380392 
0.662745 0.243137 
0.203922 0.329412 
0.592157 0.254902 
0.556863 0.490196 
0.67451 0.376471 
0.329412 0.65098 
0.352941 0.27451 
0.278431 0.360784 
0.360784 0.580392 
0.247059 0.278431 
0.345098 0.403922 
0.560784 0.305882 
0.196078 0.211765 
0.196078 0.207843 
0.243137 0.572549 
0.219608 0.431373 
0.6 0.447059 
0.231373 0.27451 
0.211765 0.286275 
0.603922 0.368627 
0.533333 0.572549 
0.4 0.443137 
0.329412 0.537255 
0.321569 0.541176 
0.619608 0.356863 
0.498039 0.231373 
0.219608 0.607843 
0.462745 0.537255 
0.4 0.341176 
0.635294 0.356863 
0.415686 0.647059 
0.360784 0.227451 
0.247059 0.631373 
0.356863 0.635294 
0.360784 0.635294 
0.345098 0.576471 
0.345098 0.635294 
0.356863 0.65098 
0.419608 0.556863 
0.223529 0.203922 
0.247059 0.635294 
0.356863 0.635294 
0.356863 0.231373 
0.25098 0.266667 
0.619608 0.462745 
0.631373 0.341176 
0.635294 0.345098 
0.592157 0.419608 
0.309804 0.203922 
0.235294 0.52549 
0.588235 0.227451 
0.262745 0.576471 
0.368627 0.576471 
0.529412 0.431373 
0.596078 0.211765 
0.239216 0.686275 
0.341176 0.282353 
0.305882 0.345098 
0.498039 0.317647 
0.647059 0.615686 
0.443137 0.262745 
0.258824 0.352941 
0.545098 0.4 
0.513725 0.380392 
0.721569 0.466667 
0.678431 0.466667 
0.662745 0.388235 
0.278431 0.301961 
0.721569 0.443137 
0.219608 0.313725 
0.639216 0.305882 
0.478431 0.427451 
0.243137 0.215686 
0.247059 0.529412 
0.262745 0.231373 
0.611765 0.298039 
0.431373 0.678431 
0.368627 0.4 
0.454902 0.454902 
0.584314 0.247059 
0.415686 0.403922 
0.564706 0.341176 
0.215686 0.266667 
0.596078 0.235294 
0.47451 0.635294 
0.517647 0.313725 
0.368627 0.647059 
0.431373 0.619608 
0.25098 0.258824 
0.337255 0.647059 
0.345098 0.466667 
0.368627 0.564706 
0.329412 0.231373 
0.215686 0.211765 
0.623529 0.356863 
0.498039 0.231373 
0.415686 0.262745 
0.207843 0.207843 
0.647059 0.207843 
0.462745 0.207843 
0.196078 0.196078 
0.207843 0.537255 
0.207843 0.4 
0.215686 0.545098 
0.341176 0.635294 
0.356863 0.360784 
0.247059 0.631373 
0.356863 0.635294 
0.360784 0.635294 
0.345098 0.576471 
0.345098 0.635294 
0.356863 0.65098 
0.419608 0.556863 
0.223529 0.635294 
0.356863 0.635294 
0.356863 0.25098 
0.592157 0.419608 
0.266667 0.207843 
0.207843 0.631373 
0.341176 0.635294 
0.34902 0.313725 
0.25098 0.607843 
0.431373 0.462745 
0.196078 0.203922 
0.196078 0.52549 
0.203922 0.603922 
0.286275 0.658824 
0.286275 0.407843 
0.278431 0.470588 
0.623529 0.258824 
0.266667 0.623529 
0.403922 0.360784 
0.341176 0.415686 
0.435294 0.45098 
0.27451 0.215686 
0.537255 0.341176 
0.505882 0.341176 
0.239216 0.564706 
0.360784 0.694118 
0.501961 0.615686 
0.317647 0.466667 
0.27451 0.223529 
0.211765 0.266667 
0.541176 0.27451 
0.215686 0.223529 
0.541176 0.27451 
0.462745 0.419608 
0.494118 0.627451 
0.388235 0.254902 
0.278431 0.690196 
0.501961 0.352941 
0.352941 0.278431 
0.568627 0.666667 
0.298039 0.486275 
0.227451 0.313725 
0.282353 0.639216 
0.52549 0.431373 
0.470588 0.54902 
0.705882 0.384314 
0.552941 0.588235 
0.247059 0.486275 
0.403922 0.568627 
0.376471 0.219608 
0.290196 0.619608 
0.25098 0.521569 
0.666667 0.584314 
0.352941 0.45098 
0.690196 0.494118 
0.701961 0.423529 
0.2 0.254902 
0.427451 0.262745 
0.262745 0.207843 
0.498039 0.207843 
0.231373 0.462745 
0.196078 0.490196 
0.411765 0.588235 
0.333333 0.247059 
0.627451 0.356863 
0.415686 0.647059 
0.537255 0.207843 
0.4 0.215686 
0.552941 0.341176 
0.635294 0.356863 
0.360784 0.247059 
0.631373 0.356863 
0.635294 0.360784 
0.635294 0.345098 
0.576471 0.345098 
0.635294 0.356863 
0.65098 0.419608 
0.556863 0.223529 
0.635294 0.356863 
0.635294 0.356863 
0.25098 0.592157 
0.419608 0.266667 
0.207843 0.631373 
0.341176 0.635294 
0.352941 0.317647 
0.266667 0.639216 
0.494118 0.462745 
0.196078 0.52549 
0.203922 0.615686 
0.309804 0.231373 
0.305882 0.513725 
0.65098 0.282353 
0.219608 0.533333 
0.215686 0.32549 
0.215686 0.529412 
0.32549 0.298039 
0.376471 0.486275 
0.529412 0.454902 
0.709804 0.670588 
0.815686 0.815686 
0.466667 0.894118 
0.776471 0.894118 
0.74902 0.74902 
0.890196 0.894118 
0.776471 0.776471 
0.796078 0.619608 
0.439216 0.776471 
0.870588 0.364706 
0.498039 0.847059 
0.94902 0.862745 
0.85098 0.972549 
0.941176 0.74902 
0.815686 0.964706 
0.976471 0.862745 
0.741176 0.94902 
0.980392 0.894118 
0.917647 0.956863 
0.827451 0.85098 
0.890196 0.717647 
0.607843 0.713725 
0.776471 0.756863 
0.803922 0.823529 
0.827451 0.72549 
0.827451 0.827451 
0.827451 0.815686 
0.827451 0.827451 
0.811765 0.827451 
0.827451 0.85098 
0.74902 0.619608 
0.776471 0.839216 
0.901961 0.862745 
0.768627 0.807843 
0.890196 0.905882 
0.701961 0.905882 
0.870588 0.741176 
0.737255 0.807843 
0.819608 0.721569 

