# vtk DataFile Version 4.2
vtk output
ASCII
DATASET POLYDATA
POINTS 1428 float
240.668 231.788 -43.0314 241.492 231.531 -43.1247 241.594 230.668 -42.048 
240.214 231.552 -42.0044 240.593 232.337 -43.0261 241.403 232.289 -43.1304 
239.984 232.854 -41.983 242.419 231.465 -43.0054 243.389 230.848 -41.9212 
242.236 232.043 -43.0278 241.377 233.094 -42.0728 242.739 232.273 -42.0176 
240.695 230.153 -40.7933 238.951 231.011 -40.0203 238.339 233.029 -40.4451 
243.747 229.326 -41.1289 242.322 229.57 -41.206 241.662 229.009 -39.8213 
239.774 233.988 -41.2081 240.726 234.005 -41.2418 238.751 234.76 -39.8158 
242.083 233.617 -40.8458 243.737 232.914 -40.1286 241.074 234.539 -39.8795 
244.973 230.113 -41.1037 245.075 229.178 -40.9031 244.506 231.407 -40.7945 
246.186 230.405 -39.8383 244.048 228.042 -39.5967 246.281 228.288 -39.8009 
241.401 228.116 -37.5877 239.505 229.076 -37.4746 239.993 229.615 -39.2142 
243.275 227.214 -37.6962 246.904 226.293 -38.785 245.245 226.747 -38.7076 
244.823 226.109 -37.2662 245.512 231.975 -39.2561 248.945 227.718 -38.9137 
249.268 225.393 -38.6704 248.119 229.479 -38.8343 247.268 231.065 -38.3018 
249.004 230.203 -37.2822 246.412 232.427 -37.4647 237.92 230.182 -37.8037 
235.771 231.209 -37.4647 236.837 231.829 -39.0531 235.836 233.372 -39.3245 
235.89 235.502 -39.1245 242.668 234.161 -39.2649 244.584 233.615 -37.8302 
243.051 234.703 -37.4896 236.768 236.533 -38.1173 238.736 236.271 -37.6975 
241.057 235.549 -37.594 252.617 221.564 -38.0277 253.571 221.498 -38.0793 
254.542 220.415 -37.1647 252.349 220.504 -36.8505 251.855 222.96 -38.3898 
253.386 222.759 -38.2517 251.252 222.022 -37.6377 254.667 222.513 -37.3602 
249.555 222.798 -37.0593 250.237 223.671 -38.263 251.588 225.048 -38.4902 
253.129 224.201 -38.1272 254.13 224.755 -36.9112 255.053 217.94 -36.1174 
253.424 218.726 -36.0209 252.978 218.005 -34.5684 251.662 219.499 -34.7804 
250.222 220.757 -34.6965 250.679 221.289 -36.3446 256.859 219.959 -36.2825 
256.975 217.789 -36.112 256.255 222.133 -36.2426 255.65 223.712 -36.0579 
248.537 224.347 -37.8192 246.798 224.944 -37.224 250.808 226.814 -38.3732 
252.545 225.836 -37.692 251.674 227.579 -37.0981 248.856 222.101 -34.8736 
247.314 223.284 -34.792 247.868 223.64 -36.4728 253.267 226.49 -36.3728 
254.944 225.482 -34.7884 256.247 224.058 -34.5392 253.747 226.95 -34.704 
245.925 224.497 -35.152 244.039 225.696 -35.0214 242.85 226.751 -35.9707 
241.243 227.381 -35.0495 249.941 228.547 -37.9147 250.662 229.205 -36.4837 
252.382 228.254 -34.8761 251.105 229.638 -34.7519 238.824 228.648 -35.0247 
237.507 229.617 -35.9752 235.779 230.118 -34.9708 247.956 231.681 -36.5849 
249.665 230.868 -34.922 248.25 232.18 -34.7724 234.896 232.43 -38.3584 
233.044 232.769 -37.9678 233.233 234.039 -38.9213 233.192 235.654 -39.0898 
233.214 230.917 -34.7595 233.399 231.682 -36.734 244.953 234.126 -35.9811 
246.442 233.449 -34.9739 243.709 235.128 -35.0217 228.951 234.699 -38.4044 
230.851 234.379 -38.6069 230.619 233.061 -37.3842 228.004 233.94 -37.3512 
228.098 235.859 -38.663 230.662 235.808 -38.9487 227.13 235.072 -38.066 
225.439 235.445 -37.6453 225.879 236.344 -38.3549 225.931 237.339 -38.1927 
228.108 237.258 -38.3958 230.561 237.19 -38.52 232.942 237.043 -38.5322 
227.844 232.795 -35.6218 225.498 233.181 -34.6799 225.654 234.299 -36.592 
229.696 232.422 -36.0058 231.551 232.041 -36.3913 230.661 231.58 -34.7759 
234.848 236.817 -38.4489 235.613 237.587 -37.1647 237.57 237.285 -36.6331 
239.439 236.842 -35.8851 241.242 236.332 -35.0165 238.239 237.75 -34.7688 
224.464 236.604 -37.9388 223.452 236.11 -36.8134 224.506 237.261 -37.8929 
223.577 237.64 -36.7946 225.659 238.194 -37.1596 228.033 238.337 -37.3177 
223.955 234.85 -36.1389 223.075 234.32 -34.5639 222.275 235.526 -35.3728 
220.672 236.283 -34.2998 221.843 236.647 -35.8379 221.897 237.547 -35.8531 
220.777 238.225 -34.3777 223.099 238.799 -35.2911 225.461 239.166 -35.6521 
227.959 239.297 -35.7679 230.549 238.306 -37.3524 230.508 239.27 -35.7349 
233.067 238.101 -37.2731 233.022 239.091 -35.4908 235.595 238.727 -34.7323 
255.978 216.419 -35.5474 257.254 216.131 -35.5349 257.422 214.684 -34.2075 
255.657 215.552 -34.3244 254.375 216.851 -34.6786 258.466 216.113 -35.2762 
259.359 215.035 -34.0197 258.469 217.467 -35.5064 258.214 218.976 -35.5901 
256.651 213.808 -32.9103 254.959 214.613 -32.2378 253.946 216.177 -33.1644 
259.091 213.531 -33.3527 258.065 213.411 -33.3261 257.608 212.367 -31.915 
252.606 217.166 -32.3462 259.728 217.218 -34.0454 258.941 219.541 -34.3124 
260.185 213.916 -32.8458 259.623 212.489 -32.175 260.575 215.214 -33.2061 
261.197 214.436 -31.8733 260.666 216.264 -33.2011 260.539 217.876 -32.2653 
261.196 216.372 -31.8488 259.811 219.685 -32.1705 251.185 218.894 -32.6101 
249.773 220.272 -32.4558 257.844 220.594 -35.2087 257.434 222.22 -34.5317 
258.537 221.118 -33.7517 258.942 221.435 -32.0561 248.372 221.641 -32.6396 
246.659 222.966 -32.4106 257.838 222.951 -32.2906 256.624 224.585 -32.3583 
245.572 224.102 -33.3362 244.153 224.839 -32.3559 255.374 225.971 -32.6211 
254.162 227.382 -32.4651 242.333 226.041 -32.1558 242.515 226.356 -34.1144 
252.817 228.681 -32.6608 251.522 230.022 -32.4785 238.774 228.152 -32.3417 
236.985 228.962 -32.1449 237.178 229.204 -34.0876 240.687 227.133 -32.3481 
250.117 231.227 -32.6539 248.725 232.451 -32.406 230.594 230.967 -32.2653 
228.242 231.36 -32.074 228.302 231.899 -34.1126 232.986 230.462 -32.3107 
235.197 229.784 -32.3238 245.278 234.512 -34.0873 247.061 233.668 -32.3444 
245.505 234.74 -32.1479 222.673 233.471 -32.3243 220.824 234.402 -32.0905 
221.421 234.933 -33.7589 224.584 232.639 -32.4897 226.606 232.22 -33.6876 
226.175 231.865 -32.0381 239.944 237.259 -34.018 241.862 236.591 -32.3334 
243.788 235.624 -32.3391 240.184 237.502 -32.1118 219.467 235.567 -32.2855 
217.863 236.764 -31.7696 219.066 236.963 -33.318 219.108 237.9 -33.4476 
217.948 238.445 -32.1972 219.513 238.998 -32.983 221.223 239.502 -33.5188 
223.03 239.856 -33.7989 220.174 240.117 -32.0103 225.382 240.084 -33.9495 
227.907 240.154 -33.9973 230.416 240.1 -33.9655 232.708 239.922 -33.8334 
234.406 239.639 -33.5864 236.382 239.142 -32.2043 238.384 238.282 -32.2462 
234.656 239.935 -31.901 259.733 210.79 -30.8727 258.393 210.847 -30.7776 
257.839 209.779 -29.1178 256.957 211.313 -30.2564 255.549 212.059 -29.4367 
255.994 212.947 -31.2832 261.08 212.4 -31.1239 260.871 210.911 -30.4728 
254.272 213.819 -29.8362 252.967 215.282 -29.5305 253.469 215.662 -31.421 
261.025 218.19 -30.5777 261.826 216.868 -29.5951 260.509 219.764 -29.6985 
262.18 214.429 -29.6838 262.079 212.12 -29.4132 251.585 217.166 -29.7104 
250.699 218.629 -30.7066 249.298 219.776 -29.7487 259.306 221.806 -29.735 
248.165 221.184 -30.7086 246.807 222.08 -29.694 258.138 223.43 -29.9851 
256.844 225.235 -29.7997 245.115 223.429 -29.4791 245.276 223.729 -31.4454 
255.629 226.359 -30.7385 254.598 227.843 -29.7618 243.666 224.673 -29.6671 
242.079 225.874 -29.6794 240.446 226.98 -29.7314 238.666 227.953 -29.733 
253.142 228.998 -30.7356 251.975 230.419 -29.7595 236.853 228.814 -29.6936 
234.982 229.617 -29.7308 232.853 230.241 -29.7336 250.491 231.424 -30.7304 
249.358 232.518 -29.752 228.012 231.05 -29.6634 225.426 231.594 -29.685 
224.119 232.28 -30.7249 230.492 230.675 -29.7126 222.391 232.755 -29.9344 
247.423 233.811 -29.7346 245.685 234.893 -29.6951 219.989 233.873 -29.7233 
218.841 234.979 -30.6262 217.194 235.598 -29.717 242.092 236.745 -29.7351 
243.91 235.829 -29.7355 240.34 237.656 -29.6844 215.052 236.888 -29.1423 
216.209 237.369 -30.742 216.088 238.531 -30.905 216.196 239.61 -30.5632 
217.84 239.843 -31.2045 236.656 239.347 -29.6833 238.529 238.505 -29.7036 
234.799 240.129 -29.6031 222.719 240.619 -31.9848 225.279 240.796 -31.959 
217.475 240.852 -29.5819 219.98 241.151 -29.8783 222.568 241.35 -29.8405 
225.203 241.377 -29.6374 227.871 240.792 -31.9507 227.86 241.23 -29.605 
230.392 240.678 -31.9318 230.401 241.021 -29.5941 232.702 240.418 -31.8964 
232.741 240.687 -29.5867 259.778 209.499 -29.4122 261.437 209.946 -28.9422 
259.917 208.079 -28.0928 258.67 208.331 -28.0447 258.32 207.553 -26.5116 
257.113 208.823 -26.9798 255.793 210.079 -26.7505 256.327 210.56 -28.5169 
261.111 208.306 -27.9182 262.8 209.534 -26.7745 261.716 207.367 -26.249 
263.112 211.96 -27.4603 263.124 214.296 -27.5069 254.486 211.931 -26.9578 
253.779 213.417 -27.9671 252.683 214.534 -27.0294 262.804 216.659 -26.7969 
251.363 216.451 -27.0677 250.138 217.93 -26.8228 250.333 218.292 -28.7835 
261.447 218.515 -28.7361 261.812 218.775 -26.7787 260.731 220.484 -27.0711 
259.485 222.491 -27.0861 248.932 219.378 -26.9549 247.613 220.677 -26.7876 
247.883 220.841 -28.7692 258.458 223.672 -28.0423 257.691 225.054 -27.0298 
246.321 221.982 -26.9874 244.868 223.294 -26.9996 243.434 224.576 -27.0545 
241.933 225.796 -27.0739 255.979 226.653 -28.8063 256.363 226.773 -26.7983 
240.341 226.912 -27.0907 238.605 227.879 -27.0929 253.471 229.323 -28.7881 
255.024 228.192 -26.9455 253.723 229.571 -26.7773 236.794 228.75 -27.0858 
234.907 229.548 -27.0935 232.797 230.146 -27.0943 250.772 231.7 -28.7902 
252.307 230.799 -26.9451 250.877 231.968 -26.7958 225.4 231.196 -27.0116 
222.95 231.722 -26.8434 223.558 231.951 -28.8453 227.938 230.823 -27.0592 
230.441 230.529 -27.0846 247.511 233.995 -27.076 249.283 232.953 -27.0194 
245.76 235.003 -27.0862 219.881 232.978 -26.9901 217.363 234.078 -26.8422 
218.152 234.471 -28.8018 221.716 232.431 -27.9434 242.184 236.822 -27.1156 
243.975 235.927 -27.1054 240.424 237.729 -27.0952 214.564 238.591 -29.5078 
215.053 240.219 -29.1468 214.554 235.661 -27.0526 212.414 236.816 -26.5984 
213.227 237.413 -28.129 212.586 238.659 -28.2375 216.337 235.071 -27.9152 
212.754 240.083 -28.0062 236.753 239.432 -27.0797 238.607 238.592 -27.0896 
234.862 240.222 -27.059 212.507 241.278 -26.5251 214.871 241.578 -27.409 
217.33 241.877 -27.7645 219.863 242.028 -27.8662 222.418 242.061 -27.6745 
225.09 241.989 -26.9497 227.894 241.574 -27.0433 230.432 241.231 -27.0538 
[...]
POINT_DATA 1428
COLOR_SCALARS scalars 1
0.227451 0.301961 0.439216 
0.333333 0.290196 
0.298039 0.423529 
0.266667 0.388235 
0.196078 0.435294 
0.286275 0.564706 
0.458824 0.568627 
0.266667 0.211765 
0.329412 0.227451 
0.203922 0.388235 
0.564706 0.427451 
0.321569 0.227451 
0.231373 0.541176 
0.415686 0.415686 
0.423529 0.447059 
0.298039 0.207843 
0.564706 0.278431 
0.196078 0.294118 
0.258824 0.333333 
0.298039 0.25098 
0.6 0.423529 
0.403922 0.588235 
0.439216 0.313725 
0.466667 0.380392 
0.2 0.568627 
0.290196 0.592157 
0.54902 0.443137 
0.196078 0.247059 
0.498039 0.392157 
0.258824 0.25098 
0.513725 0.505882 
0.4 0.203922 
0.262745 0.196078 
0.392157 0.384314 
0.219608 0.333333 
0.592157 0.333333 
0.219608 0.443137 
0.45098 0.356863 
0.211765 0.537255 
0.447059 0.211765 
0.517647 0.403922 
0.592157 0.337255 
0.231373 0.219608 
0.588235 0.321569 
0.333333 0.611765 
0.396078 0.713725 
0.564706 0.556863 
0.227451 0.592157 
0.333333 0.384314 
0.713725 0.564706 
0.223529 0.596078 
0.321569 0.639216 
0.521569 0.321569 
0.32549 0.396078 
0.286275 0.709804 
0.545098 0.384314 
0.207843 0.235294 
0.447059 0.415686 
0.270588 0.282353 
0.541176 0.501961 
0.25098 0.207843 
0.211765 0.215686 
0.219608 0.627451 
0.533333 0.356863 
0.658824 0.203922 
0.298039 0.203922 
0.372549 0.270588 
0.705882 0.564706 
0.380392 0.211765 
0.427451 0.196078 
0.396078 0.419608 
0.427451 0.247059 
0.372549 0.643137 
0.486275 0.321569 
0.341176 0.509804 
0.596078 0.631373 
0.643137 0.431373 
0.647059 0.423529 
0.627451 0.541176 
0.215686 0.352941 
0.529412 0.32549 
0.576471 0.333333 
0.501961 0.337255 
0.247059 0.658824 
0.447059 0.682353 
0.329412 0.282353 
0.431373 0.427451 
0.505882 0.372549 
0.631373 0.486275 
0.235294 0.352941 
0.203922 0.615686 
0.305882 0.458824 
0.690196 0.427451 
0.662745 0.533333 
0.227451 0.286275 
0.690196 0.427451 
0.615686 0.4 
0.701961 0.47451 
0.686275 0.423529 
0.278431 0.235294 
0.686275 0.411765 
0.407843 0.25098 
0.235294 0.607843 
0.662745 0.356863 
0.321569 0.290196 
0.266667 0.419608 
0.592157 0.231373 
0.580392 0.247059 
0.466667 0.321569 
0.223529 0.603922 
0.211765 0.243137 
0.235294 0.592157 
0.403922 0.247059 
0.603922 0.403922 
0.266667 0.32549 
0.482353 0.639216 
0.247059 0.270588 
0.368627 0.278431 
0.278431 0.278431 
0.266667 0.211765 
0.576471 0.403922 
0.227451 0.298039 
0.227451 0.396078 
0.6 0.380392 
0.239216 0.305882 
0.215686 0.572549 
0.294118 0.203922 
0.709804 0.411765 
0.537255 0.486275 
0.462745 0.521569 
0.760784 0.513725 
0.341176 0.760784 
0.513725 0.670588 
0.47451 0.262745 
0.2 0.752941 
0.509804 0.541176 
0.309804 0.627451 
0.411765 0.752941 
0.478431 0.25098 
0.592157 0.419608 
0.698039 0.376471 
0.294118 0.266667 
0.643137 0.321569 
0.552941 0.584314 
0.247059 0.427451 
0.709804 0.552941 
0.592157 0.403922 
0.247059 0.419608 
0.235294 0.309804 
0.223529 0.305882 
0.576471 0.403922 
0.227451 0.384314 
0.364706 0.466667 
0.501961 0.505882 
0.454902 0.329412 
0.364706 0.301961 
0.309804 0.286275 
0.286275 0.505882 
0.396078 0.352941 
0.227451 0.345098 
0.568627 0.301961 
0.203922 0.294118 
0.576471 0.454902 
0.623529 0.615686 
0.517647 0.694118 
0.380392 0.517647 
0.611765 0.329412 
0.258824 0.247059 
0.313725 0.615686 
0.396078 0.603922 
0.32549 0.258824 
0.72549 0.545098 
0.603922 0.329412 
0.611765 0.345098 
0.25098 0.313725 
0.643137 0.415686 
0.25098 0.596078 
0.313725 0.25098 
0.592157 0.419608 
0.196078 0.54902 
0.231373 0.286275 
0.262745 0.211765 
0.298039 0.321569 
0.588235 0.396078 
0.247059 0.533333 
0.376471 0.278431 
0.639216 0.592157 
0.403922 0.247059 
0.541176 0.415686 
0.603922 0.482353 
0.313725 0.435294 
0.701961 0.360784 
0.576471 0.403922 
0.227451 0.552941 
0.603922 0.627451 
0.639216 0.623529 
0.541176 0.403922 
0.317647 0.286275 
0.537255 0.67451 
0.462745 0.682353 
0.25098 0.313725 
0.45098 0.388235 
0.580392 0.368627 
0.701961 0.247059 
0.34902 0.262745 
0.607843 0.27451 
0.215686 0.25098 
0.196078 0.447059 
0.670588 0.368627 
0.568627 0.227451 
0.356863 0.643137 
0.356863 0.666667 
0.447059 0.643137 
0.356863 0.227451 
0.262745 0.643137 
0.360784 0.588235 
0.345098 0.654902 
0.419608 0.635294 
0.341176 0.25098 
0.592157 0.419608 
0.580392 0.247059 
0.286275 0.227451 
0.203922 0.298039 
0.301961 0.321569 
0.6 0.407843 
0.266667 0.419608 
0.309804 0.270588 
0.580392 0.607843 
0.431373 0.258824 
0.670588 0.447059 
0.286275 0.254902 
0.584314 0.384314 
0.278431 0.690196 
0.580392 0.407843 
0.231373 0.4 
0.584314 0.513725 
0.678431 0.243137 
0.258824 0.333333 
0.262745 0.262745 
0.254902 0.203922 
0.6 0.462745 
0.239216 0.364706 
0.305882 0.611765 
0.439216 0.290196 
0.509804 0.686275 
0.282353 0.392157 
0.576471 0.278431 
0.196078 0.466667 
0.662745 0.321569 
0.345098 0.305882 
0.462745 0.431373 
0.341176 0.501961 
0.701961 0.235294 
0.388235 0.576471 
0.372549 0.647059 
0.356863 0.698039 
0.494118 0.643137 
0.356863 0.294118 
0.643137 0.360784 
0.607843 0.34902 
0.654902 0.419608 
0.635294 0.341176 
0.25098 0.592157 
0.419608 0.580392 
0.247059 0.286275 
0.227451 0.580392 
0.298039 0.419608 
0.301961 0.321569 
0.619608 0.411765 
0.294118 0.313725 
0.258824 0.235294 
0.639216 0.482353 
0.278431 0.627451 
0.494118 0.694118 
0.482353 0.301961 
0.27451 0.584314 
0.411765 0.235294 
0.415686 0.607843 
0.243137 0.309804 
0.635294 0.545098 
0.262745 0.447059 
0.345098 0.360784 
0.34902 0.423529 
0.470588 0.435294 
0.317647 0.356863 
0.290196 0.301961 
0.427451 0.309804 
0.458824 0.584314 
0.694118 0.32549 
0.360784 0.647059 
0.47451 0.25098 
0.345098 0.541176 
0.713725 0.501961 
0.576471 0.517647 
0.372549 0.380392 
0.556863 0.227451 
0.196078 0.243137 
0.588235 0.392157 
0.407843 0.65098 
0.360784 0.196078 
0.223529 0.643137 
0.356863 0.545098 
0.321569 0.643137 
0.360784 0.623529 
0.352941 0.654902 
0.419608 0.635294 
0.341176 0.25098 
0.592157 0.419608 
0.580392 0.247059 
0.286275 0.227451 
0.580392 0.298039 
0.419608 0.301961 
0.321569 0.639216 
0.415686 0.32549 
0.282353 0.247059 
0.196078 0.317647 
0.666667 0.533333 
0.294118 0.6 
0.466667 0.32549 
0.588235 0.415686 
0.243137 0.658824 
0.419608 0.270588 
0.243137 0.376471 
0.560784 0.701961 
0.376471 0.203922 
0.623529 0.52549 
0.25098 0.380392 
0.517647 0.580392 
0.521569 0.396078 
0.313725 0.286275 
0.262745 0.243137 
0.4 0.431373 
0.290196 0.290196 
0.478431 0.478431 
0.25098 0.27451 
0.411765 0.45098 
0.227451 0.278431 
0.392157 0.576471 
0.301961 0.207843 
0.219608 0.541176 
0.321569 0.635294 
0.305882 0.627451 
0.54902 0.219608 
0.317647 0.219608 
0.305882 0.396078 
0.419608 0.223529 
0.2 0.278431 
0.447059 0.317647 
0.615686 0.431373 
0.576471 0.305882 
0.694118 0.317647 
0.254902 0.603922 
0.419608 0.203922 
0.282353 0.435294 
0.588235 0.654902 
0.435294 0.603922 
0.254902 0.219608 
0.576471 0.403922 
0.407843 0.592157 
0.247059 0.247059 
0.419608 0.654902 
0.592157 0.403922 
0.360784 0.243137 
0.643137 0.356863 
0.576471 0.341176 
0.643137 0.364706 
0.639216 0.356863 
0.662745 0.435294 
0.639216 0.341176 
0.266667 0.607843 
0.439216 0.580392 
0.247059 0.286275 
0.227451 0.580392 
0.298039 0.419608 
0.301961 0.333333 
0.65098 0.419608 
0.345098 0.298039 
0.286275 0.670588 
0.321569 0.556863 
0.203922 0.568627 
0.227451 0.32549 
0.262745 0.607843 
0.435294 0.266667 
0.317647 0.521569 
0.466667 0.662745 
0.258824 0.313725 
0.678431 0.588235 
0.290196 0.423529 
0.435294 0.588235 
0.658824 0.592157 
0.447059 0.34902 
0.313725 0.509804 
0.333333 0.219608 
0.423529 0.643137 
0.254902 0.360784 
0.423529 0.4 
0.243137 0.305882 
0.623529 0.521569 
0.321569 0.32549 
0.439216 0.45098 
0.458824 0.521569 
0.541176 0.623529 
0.694118 0.266667 
0.235294 0.384314 
0.517647 0.627451 
0.352941 0.486275 
0.631373 0.231373 
0.254902 0.270588 
0.270588 0.223529 
0.411765 0.592157 
0.576471 0.223529 
0.403922 0.25098 
0.247059 0.419608 
0.654902 0.592157 
0.403922 0.360784 
0.243137 0.643137 
0.356863 0.576471 
0.341176 0.647059 
0.384314 0.639216 
0.356863 0.694118 
0.490196 0.639216 
0.341176 0.313725 
0.658824 0.490196 
0.580392 0.247059 
0.286275 0.227451 
0.580392 0.298039 
0.419608 0.309804 
0.360784 0.65098 
0.419608 0.345098 
0.286275 0.223529 
0.223529 0.298039 
0.321569 0.572549 
0.231373 0.556863 
0.32549 0.521569 
0.470588 0.658824 
0.490196 0.313725 
0.34902 0.211765 
0.215686 0.231373 
0.619608 0.478431 
0.25098 0.345098 
0.486275 0.619608 
0.231373 0.27451 
0.25098 0.231373 
0.627451 0.52549 
0.254902 0.427451 
0.34902 0.298039 
0.627451 0.447059 
0.541176 0.52549 
0.494118 0.203922 
0.278431 0.364706 
0.470588 0.564706 
0.580392 0.215686 
0.270588 0.592157 
0.207843 0.662745 
0.247059 0.337255 
0.258824 0.294118 
0.388235 0.533333 
0.486275 0.6 
0.662745 0.662745 
0.278431 0.290196 
0.278431 0.282353 
0.223529 0.415686 
0.592157 0.576471 
0.403922 0.25098 
0.247059 0.419608 
0.654902 0.592157 
0.403922 0.360784 
0.243137 0.643137 
0.360784 0.576471 
0.341176 0.65098 
0.403922 0.639216 
0.356863 0.72549 
0.545098 0.639216 
0.341176 0.360784 
0.705882 0.545098 
0.580392 0.247059 
0.282353 0.223529 
0.580392 0.298039 
0.419608 0.317647 
0.392157 0.65098 
0.419608 0.345098 
0.286275 0.223529 
0.556863 0.298039 
0.32549 0.321569 
0.576471 0.239216 
0.521569 0.47451 
0.705882 0.545098 
0.360784 0.376471 
0.223529 0.65098 
0.529412 0.270588 
0.372549 0.533333 
0.65098 0.270588 
0.666667 0.603922 
0.278431 0.509804 
0.384314 0.309804 
0.282353 0.290196 
0.345098 0.239216 
0.305882 0.545098 
0.647059 0.254902 
0.580392 0.615686 
0.317647 0.341176 
0.564706 0.67451 
0.427451 0.219608 
0.286275 0.231373 
0.333333 0.25098 
0.309804 0.329412 
0.427451 0.423529 
0.32549 0.584314 
0.678431 0.584314 
0.239216 0.286275 
0.231373 0.2 
0.298039 0.286275 
0.223529 0.309804 
0.423529 0.6 
0.576471 0.403922 
0.254902 0.247059 
0.423529 0.658824 
0.592157 0.403922 
0.360784 0.243137 
0.643137 0.360784 
0.576471 0.341176 
0.654902 0.419608 
0.639216 0.356863 
0.25098 0.223529 
0.639216 0.345098 
0.403922 0.247059 
0.215686 0.592157 
0.580392 0.25098 
0.282353 0.223529 
0.580392 0.298039 
0.419608 0.321569 
0.419608 0.592157 
0.654902 0.423529 
0.34902 0.286275 
0.223529 0.560784 
0.298039 0.333333 
0.321569 0.580392 
0.247059 0.52549 
0.207843 0.203922 
0.196078 0.215686 
0.596078 0.403922 
0.25098 0.196078 
0.478431 0.231373 
0.196078 0.580392 
0.411765 0.227451 
0.4 0.576471 
0.2 0.227451 
0.243137 0.678431 
0.584314 0.286275 
0.427451 0.329412 
0.290196 0.286275 
0.298039 0.298039 
0.427451 0.427451 
0.305882 0.545098 
0.317647 0.219608 
0.219608 0.270588 
0.615686 0.341176 
0.227451 0.564706 
0.223529 0.223529 
0.25098 0.619608 
0.509804 0.419608 
0.301961 0.286275 
0.305882 0.356863 
0.384314 0.47451 
0.419608 0.611765 
0.505882 0.227451 
0.247059 0.623529 
0.258824 0.290196 
0.298039 0.286275 
0.345098 0.478431 
0.223529 0.647059 
0.576471 0.403922 
0.301961 0.247059 
0.478431 0.690196 
0.592157 0.403922 
0.380392 0.243137 
0.647059 0.360784 
0.576471 0.341176 
0.654902 0.419608 
0.639216 0.356863 
0.25098 0.592157 
0.403922 0.639216 
0.34902 0.247059 
0.592157 0.419608 
0.6 0.278431 
0.282353 0.223529 
0.580392 0.298039 
0.419608 0.321569 
0.686275 0.47451 
0.364706 0.290196 
0.243137 0.592157 
0.298039 0.380392 
0.321569 0.584314 
0.247059 0.556863 
0.223529 0.611765 
0.411765 0.282353 
0.2 0.486275 
0.231373 0.615686 
0.458824 0.254902 
0.4 0.576471 
0.227451 0.227451 
0.619608 0.505882 
0.25098 0.411765 
0.333333 0.286275 
0.298039 0.298039 
0.290196 0.427451 
0.305882 0.545098 
0.317647 0.223529 
0.615686 0.341176 
0.27451 0.278431 
0.270588 0.564706 
0.223529 0.654902 
0.588235 0.286275 
0.313725 0.505882 
0.384314 0.458824 
0.52549 0.505882 
0.643137 0.588235 
0.262745 0.666667 
0.294118 0.298039 
0.286275 0.286275 
0.380392 0.533333 
0.223529 0.694118 
0.576471 0.403922 
0.352941 0.247059 
0.533333 0.717647 
0.592157 0.403922 
0.4 0.243137 
0.65098 0.360784 
0.576471 0.341176 
0.654902 0.419608 
0.639216 0.356863 
0.25098 0.592157 
0.403922 0.639216 
0.352941 0.247059 
0.592157 0.419608 
0.615686 0.309804 
0.282353 0.223529 
0.580392 0.298039 
0.419608 0.321569 
0.713725 0.521569 
0.384314 0.294118 
0.262745 0.623529 
0.301961 0.431373 
0.321569 0.588235 
0.247059 0.588235 
0.243137 0.631373 
0.415686 0.313725 
0.203922 0.494118 
0.231373 0.65098 
0.509804 0.278431 
0.4 0.576471 
0.227451 0.658824 
0.588235 0.27451 
0.490196 0.372549 
0.286275 0.298039 
0.298039 0.294118 
0.729412 0.662745 
0.886275 0.835294 
0.905882 0.917647 
0.67451 0.870588 
0.92549 0.705882 
0.819608 0.92549 
0.74902 0.792157 
0.937255 0.835294 
0.823529 0.956863 
0.905882 0.87451 
0.976471 0.937255 
0.690196 0.917647 
0.984314 0.941176 
0.698039 0.745098 
0.94902 0.988235 
0.929412 0.678431 
0.839216 0.972549 
0.976471 0.866667 
0.917647 0.984314 
0.945098 0.74902 
0.831373 0.964706 
0.976471 0.870588 
0.92549 0.984314 
0.941176 0.74902 
0.878431 0.972549 
0.960784 0.847059 
0.862745 0.960784 
0.960784 0.862745 
0.882353 0.752941 
0.956863 0.952941 
0.854902 0.870588 
0.74902 0.937255 
0.956863 0.917647 
0.815686 0.870588 
0.772549 0.941176 
0.960784 0.937255 
0.862745 0.67451 
0.698039 0.870588 
0.772549 0.92549 
0.941176 0.713725 
0.941176 0.952941 
0.968627 0.952941 
0.878431 0.74902 
0.686275 0.698039 
0.827451 0.913725 
0.933333 0.713725 
0.941176 0.952941 
0.972549 0.984314 
0.976471 0.964706 
0.945098 0.905882 
0.811765 0.721569 
0.862745 0.92549 
0.937255 0.937255 
0.937255 0.917647 
0.87451 0.815686 
0.737255 0.678431 
0.698039 0.698039 
0.690196 
