# vtk DataFile Version 4.2
vtk output
ASCII
DATASET POLYDATA
POINTS 11133 float
63.5102 85.3015 -44.1012 63.7676 85.2626 -44.1018 64.1313 84.8779 -43.631 
63.4081 85.0048 -43.6065 63.393 85.6768 -44.13 63.6503 85.6345 -44.1098 
63.044 86.1116 -43.722 63.7675 85.9677 -43.6412 64.3512 83.5724 -43.4305 
63.6792 84.0404 -43.2906 63.3728 83.632 -42.5696 62.7843 84.7904 -42.7473 
62.5809 85.7099 -43.1036 64.8484 84.279 -43.3036 65.1417 83.303 -43.459 
64.6036 85.2356 -43.063 65.2046 84.6498 -42.5829 64.4158 86.1794 -42.7644 
61.9982 86.2713 -42.6432 62.3422 86.712 -43.4325 62.0832 87.8162 -43.6782 
62.8652 87.6698 -43.7885 63.5324 87.0408 -43.458 63.913 87.4931 -42.6959 
62.1801 88.2924 -44.2022 62.4717 88.2538 -44.2286 62.0454 88.8828 -44.2749 
62.3789 88.8622 -44.2739 61.7139 88.8967 -43.8086 62.7179 88.8556 -43.8072 
61.957 89.4963 -44.234 62.2463 89.4554 -44.2047 61.5829 90.1055 -43.8067 
62.3554 89.9482 -43.6885 61.4512 87.6285 -42.6695 61.2308 88.8173 -43.0772 
63.3404 88.0265 -43.2475 63.2063 88.9336 -43.0779 61.1077 89.7298 -43.2496 
62.9912 90.1407 -42.6769 60.5627 90.2712 -42.6939 60.9181 90.7597 -43.4791 
60.6796 91.9478 -43.714 61.4885 91.7919 -43.8245 62.1353 91.1133 -43.4767 
62.4975 91.5973 -42.692 60.783 92.5173 -44.2637 61.0982 92.4732 -44.2834 
60.6125 93.2795 -44.4261 61.0189 93.2432 -44.3922 60.259 93.1144 -43.8868 
61.4381 93.0876 -43.8783 60.4121 94.3924 -44.7108 60.8717 94.2602 -44.5089 
59.9933 94.3861 -43.995 61.2767 94.2865 -43.837 60.0526 91.7203 -42.6895 
59.82 92.9587 -43.1089 61.9733 92.1499 -43.2672 61.9008 93.0998 -43.1287 
59.6672 93.904 -43.3141 61.7884 94.329 -42.809 60.1568 95.704 -45.6168 
60.6698 95.1512 -44.7221 60.1568 95.704 -44.2496 60.8939 95.4717 -43.8741 
59.2447 94.41 -42.7297 59.541 94.8886 -43.5739 59.4883 95.9153 -43.8622 
61.4343 95.6587 -42.7721 59.6927 96.1898 -44.7032 59.5516 96.9423 -44.4541 
59.925 96.8263 -44.6689 60.2922 96.967 -43.9589 60.7862 96.5049 -43.5651 
61.0943 97.0241 -42.7236 59.2613 97.0461 -43.7801 59.5125 97.618 -44.2706 
59.7685 97.5905 -44.3392 59.3414 98.2025 -43.6655 59.9369 98.2037 -43.7519 
58.9894 95.7787 -42.7654 58.8502 97.0783 -42.829 58.8446 98.366 -42.7958 
60.636 97.4976 -43.2936 60.4899 98.4605 -43.0747 59.3257 99.6212 -43.2533 
59.8438 99.6337 -43.286 58.8773 99.6946 -42.6188 60.4044 99.755 -42.68 
75.6962 75.8663 -42.7213 76.0016 75.8207 -42.6926 76.2681 75.6759 -42.1676 
75.4228 75.8205 -42.2531 75.6561 76.0199 -42.7487 75.984 75.9674 -42.6991 
75.2661 76.2334 -42.3682 76.2285 76.0554 -42.1728 75.3675 75.4107 -41.3124 
74.4 75.856 -41.3229 74.536 76.0527 -42.1979 73.8288 76.5632 -42.8824 
76.5198 75.1426 -41.2594 77.0518 75.6326 -41.8576 77.7294 75.3225 -41.2556 
77.0362 75.9211 -41.8118 73.8288 76.5632 -41.5152 75.1583 76.7019 -41.3382 
76.4396 76.4334 -41.2319 77.6978 76.0343 -41.0777 90.8072 75.8177 -42.6914 
91.1209 75.8614 -42.717 91.4241 75.8075 -42.2418 90.5462 75.6704 -42.1644 
90.8206 75.9657 -42.6989 91.1516 76.0173 -42.7465 90.5756 76.0533 -42.1722 
91.5432 76.2299 -42.3661 90.3055 75.128 -41.2534 89.075 75.3187 -41.2548 
89.753 75.6299 -41.8564 89.7654 75.9197 -41.8115 91.5349 75.3736 -41.2842 
92.383 76.0307 -42.166 92.7257 75.8026 -41.2272 92.9696 76.5632 -42.8824 
89.1023 76.0329 -41.0776 90.3608 76.4307 -41.2322 91.6421 76.6976 -41.3405 
92.9696 76.5632 -41.5152 94.8119 77.1337 -42.782 95.16 77.204 -42.7637 
95.4216 77.1527 -42.3082 94.4146 76.9199 -42.4046 94.8591 77.2938 -42.7592 
95.2122 77.3631 -42.7796 94.5694 77.3478 -42.2905 95.603 77.5748 -42.3992 
94.2883 76.4375 -41.3775 93.5743 77.0971 -42.1731 95.4984 76.7551 -41.3422 
96.3463 77.4103 -42.212 96.4849 77.2222 -41.3249 97.0712 77.9304 -42.8824 
93.2301 77.2992 -41.2085 94.4498 77.7481 -41.2784 95.728 78.0381 -41.3448 
97.0712 77.9304 -41.5152 67.3144 80.1688 -43.3067 67.7299 79.9988 -43.0515 
68.2161 79.5601 -42.3234 67.2086 79.9435 -42.4499 66.9928 80.6648 -44.2496 
67.5978 80.3634 -43.2804 66.9928 80.6648 -42.8824 67.9947 80.4546 -42.3613 
65.9402 80.9978 -42.548 66.174 81.2182 -43.6947 65.6256 82.032 -44.2496 
66.4555 81.5024 -43.695 66.7175 81.7855 -42.5478 67.1483 79.2921 -41.3423 
66.2298 79.8836 -41.2815 66.4285 80.2285 -42.137 67.9622 79.0839 -41.6851 
69.4766 79.2356 -41.9866 69.8092 78.5132 -42.0691 68.8556 78.8255 -41.9391 
68.5528 78.5276 -41.2127 68.9341 79.975 -41.9148 67.56 81.2923 -42.1063 
68.4884 80.8387 -41.2987 69.2264 80.1946 -41.1779 67.8677 81.578 -41.2623 
65.6256 82.032 -42.8824 64.5368 82.2939 -42.5401 64.8191 82.6115 -43.4542 
65.6955 83.3321 -42.6251 65.5195 80.5573 -41.3711 64.7715 81.1813 -41.3018 
65.0468 81.4537 -42.1677 66.3633 82.8243 -42.1974 67.1901 82.312 -41.3635 
66.6009 83.3039 -41.3061 64.0555 83.1349 -42.9114 64.1237 81.9076 -41.3836 
63.4299 82.6203 -41.3194 63.7388 82.8105 -42.1884 66.0435 83.8045 -41.8047 
65.7739 84.7423 -41.38 62.7989 83.5505 -41.4197 62.497 84.4028 -41.8759 
61.9959 84.9338 -41.3692 62.2246 85.3111 -42.2933 64.9701 85.6149 -42.272 
65.2083 85.9808 -41.3343 64.7186 86.5646 -41.8699 64.4769 87.5104 -41.4128 
61.556 86.0823 -41.47 61.1516 87.1366 -41.5446 60.7293 87.9572 -41.3146 
60.9423 88.192 -42.1523 60.753 89.0532 -42.3564 63.6942 88.693 -42.3519 
64.0528 88.7418 -41.3159 63.4913 89.5548 -42.1496 63.2881 90.617 -41.5288 
63.6928 89.7773 -41.2977 62.9447 91.718 -41.4462 60.4011 88.9928 -41.3466 
60.1024 90.1429 -41.4779 59.7533 91.2261 -41.5506 59.3557 92.0654 -41.3167 
59.5662 92.2975 -42.1605 59.3882 93.1785 -42.3692 62.3408 92.8663 -42.3744 
62.6708 92.9524 -41.333 62.1985 93.8089 -42.2014 62.0312 94.776 -41.9178 
62.3846 94.2084 -41.3217 61.8753 95.7778 -41.5569 59.0461 93.1347 -41.3456 
58.7836 94.378 -41.468 58.5013 95.751 -41.5043 58.43 97.1141 -41.7963 
61.5551 97.0937 -41.4571 58.4124 98.417 -41.8444 60.9529 98.3142 -42.3654 
61.3097 98.4278 -41.3423 58.4465 99.7229 -41.7269 60.8296 99.3034 -42.1744 
59.3428 100.783 -43.02 59.7394 100.796 -43.0609 58.9875 100.938 -42.4115 
60.139 100.995 -42.5712 58.533 101.058 -41.3945 60.6852 100.273 -42.0032 
61.0639 99.8067 -41.3558 60.5543 101.227 -41.8688 59.411 101.523 -42.8544 
59.6581 101.53 -42.8884 59.2974 102.009 -42.2534 59.8472 102.032 -42.3596 
58.8976 102.312 -41.2824 60.3628 102.373 -41.6658 59.463 102.869 -41.8516 
59.7966 102.905 -41.93 59.3712 103.454 -41.0819 60.1068 103.585 -41.2873 
109.533 112.997 -42.9063 109.887 112.984 -42.8541 110.131 112.627 -42.2593 
109.4 112.588 -42.2859 109.196 113.598 -43.1777 109.805 113.489 -42.9757 
108.954 113.265 -42.7469 110.203 113.414 -42.3396 108.247 113.755 -42.4783 
108.486 114.043 -43.3683 108.009 114.845 -44.2496 109.021 114.33 -43.3106 
109.637 114.017 -43.0024 109.854 114.175 -42.3832 110.189 112.024 -41.8285 
109.817 112.005 -41.8437 109.822 111.726 -41.1268 109.193 112.141 -41.271 
108.522 112.675 -41.2404 108.704 112.947 -42.0756 110.702 112.478 -41.4263 
110.505 111.764 -41.0764 110.721 113.411 -41.3259 110.231 114.36 -41.3635 
108.009 114.845 -42.8824 109.059 114.811 -42.4856 107.272 115.06 -42.4359 
107.504 115.166 -43.3017 107.324 115.581 -43.0422 107.701 115.455 -43.2773 
107.792 115.864 -42.3537 107.905 113.386 -41.3136 107.247 114.107 -41.2451 
107.546 114.272 -42.1127 108.637 115.508 -42.1008 109.563 115.067 -41.4653 
108.967 115.741 -41.284 106.847 116.06 -42.2887 106.631 115.015 -41.3 
106.369 115.783 -41.6565 105.726 116.293 -41.1689 105.977 116.673 -41.8403 
105.438 117.663 -41.7596 106.473 117.318 -41.8548 107.287 116.788 -41.8776 
108.211 116.352 -41.2996 107.54 117.077 -41.1633 103.071 120.764 -42.6275 
103.348 120.678 -42.6448 103.726 120.281 -42.1011 102.91 120.535 -42.0509 
103.005 121.037 -42.6378 103.232 120.934 -42.664 102.749 121.301 -42.078 
103.319 120.976 -42.172 104.093 119.152 -41.7972 103.33 119.7 -41.769 
103.104 119.478 -41.0938 102.546 120.215 -41.1546 102.054 120.867 -41.072 
102.296 120.957 -41.746 102.169 121.453 -41.7445 104.562 119.688 -41.7832 
105.105 118.789 -41.746 104.114 120.589 -41.3476 104.8 119.953 -41.1517 
103.556 121.231 -41.3049 102.942 121.676 -41.3269 102.096 121.844 -41.6115 
102.372 121.819 -41.716 102.433 122.03 -41.0971 72.6384 76.7739 -41.2953 
72.6402 77.0362 -42.1351 72.345 77.4681 -42.121 73.2603 77.1342 -42.0903 
73.5717 77.3079 -41.174 75.1692 74.9493 -40.2049 73.93 75.4975 -40.1631 
73.3974 76.1191 -40.6241 76.126 74.7933 -40.5077 72.4533 76.3139 -40.1925 
74.5983 77.1805 -40.8616 75.5951 77.0218 -40.4851 76.5855 76.8766 -40.0632 
75.0023 77.4402 -39.957 78.031 74.6497 -40.6842 77.0793 74.6744 -40.6951 
76.7016 74.3773 -39.9558 77.9224 76.5279 -39.9878 79.2428 75.2445 -40.9407 
79.3161 74.6031 -40.5925 79.2331 75.8879 -40.6926 79.2958 76.349 -39.848 
88.7708 74.6436 -40.6854 87.4832 74.5977 -40.5951 87.557 75.243 -40.9405 
89.729 74.6645 -40.6941 87.5659 75.8871 -40.6923 90.6922 74.7607 -40.5026 
90.1046 74.357 -39.9567 91.6672 74.8689 -40.19 87.503 76.348 -39.8478 
88.8768 76.5253 -39.9876 90.2141 76.8693 -40.0636 91.2031 77.0108 -40.4874 
92.922 75.2493 -40.108 92.2004 77.1695 -40.8752 91.7921 77.4118 -39.9644 
93.7545 75.9295 -40.9069 94.1989 75.6326 -40.0322 71.7911 77.3837 -42.1183 
71.6891 77.2447 -41.2578 71.0944 77.9304 -42.8824 71.0944 77.9304 -41.5152 
72.3654 77.7271 -41.2419 69.8032 78.1507 -41.2512 70.4145 78.6527 -42.0753 
70.6165 78.7641 -41.2249 71.3064 76.9742 -40.0193 71.0944 77.9304 -40.148 
72.4061 78.1316 -40.0459 69.7939 77.728 -40.0708 71.0029 78.9414 -39.9878 
73.7207 77.8012 -40.0047 94.7468 76.1096 -40.5536 95.717 76.3074 -40.2015 
93.0465 77.7644 -40.0279 94.3318 78.1906 -40.0711 95.3027 78.3446 -40.4846 
96.9375 76.8893 -40.136 96.2463 78.4665 -40.8365 97.1455 78.4974 -41.0833 
95.8789 78.7186 -39.9436 97.6066 78.2049 -41.9274 97.9335 78.1801 -41.0522 
97.322 78.3304 -41.9357 97.6754 78.4259 -41.6735 97.4285 77.5086 -40.591 
98.2031 77.7251 -40.0884 69.8951 79.485 -41.1863 68.5277 78.0696 -40.0541 
67.4997 78.4913 -39.9977 67.7058 78.7247 -40.8891 70.1898 79.7112 -40.1525 
69.4936 80.4281 -40.1052 97.9385 78.5879 -40.9163 98.534 78.3609 -40.5307 
[...]
POINT_DATA 11133
COLOR_SCALARS scalars 1
0.215686 0.239216 0.380392 
0.341176 0.239216 
0.215686 0.380392 
0.341176 0.372549 
0.266667 0.364706 
0.462745 0.517647 
0.27451 0.333333 
0.521569 0.372549 
0.466667 0.364706 
0.266667 0.313725 
0.376471 0.27451 
0.376471 0.2 
0.239216 0.215686 
0.215686 0.341176 
0.341176 0.235294 
0.2 0.372549 
0.313725 0.427451 
0.466667 0.513725 
0.466667 0.509804 
0.427451 0.364706 
0.266667 0.313725 
0.372549 0.266667 
0.364706 0.2 
0.235294 0.215686 
0.215686 0.341176 
0.341176 0.239216 
0.203922 0.380392 
0.321569 0.427451 
0.466667 0.509804 
0.466667 0.517647 
0.443137 0.254902 
0.2 0.4 
0.313725 0.368627 
0.266667 0.313725 
0.427451 0.196078 
0.2 0.239216 
0.380392 0.266667 
0.368627 0.317647 
0.196078 0.211765 
0.305882 0.333333 
0.427451 0.431373 
0.419608 0.517647 
0.454902 0.301961 
0.305882 0.411765 
0.419608 0.239216 
0.254902 0.34902 
0.32549 0.258824 
0.235294 0.356863 
0.32549 0.411765 
0.294118 0.231373 
0.333333 0.443137 
0.298039 0.380392 
0.231373 0.419608 
0.45098 0.411765 
0.290196 0.254902 
0.239216 0.32549 
0.34902 0.235294 
0.262745 0.32549 
0.356863 0.443137 
0.380392 0.298039 
0.231373 0.411765 
0.239216 0.301961 
0.345098 0.290196 
0.411765 0.454902 
0.439216 0.262745 
0.239216 0.32549 
0.356863 0.239216 
0.258824 0.32549 
0.356863 0.454902 
0.239216 0.411765 
0.231373 0.294118 
0.329412 0.305882 
0.415686 0.45098 
0.419608 0.254902 
0.286275 0.388235 
0.34902 0.333333 
0.27451 0.454902 
0.372549 0.388235 
0.282353 0.34902 
0.290196 0.396078 
0.439216 0.27451 
0.215686 0.494118 
0.333333 0.305882 
0.239216 0.301961 
0.215686 0.227451 
0.47451 0.27451 
0.286275 0.47451 
0.396078 0.290196 
0.458824 0.490196 
0.286275 0.223529 
0.262745 0.501961 
0.337255 0.505882 
0.501961 0.278431 
0.219608 0.580392 
0.47451 0.462745 
0.588235 0.32549 
0.258824 0.258824 
0.329412 0.592157 
0.47451 0.462745 
0.541176 0.247059 
0.196078 0.266667 
0.266667 0.337255 
0.196078 0.541176 
0.247059 0.462745 
0.337255 0.462745 
0.541176 0.247059 
0.196078 0.266667 
0.266667 0.337255 
0.203922 0.560784 
0.258824 0.541176 
0.337255 0.466667 
0.541176 0.54902 
0.466667 0.533333 
0.262745 0.337255 
0.521569 0.203922 
0.290196 0.294118 
0.396078 0.4 
0.501961 0.529412 
0.258824 0.509804 
0.243137 0.266667 
0.333333 0.360784 
0.423529 0.458824 
0.231373 0.301961 
0.290196 0.380392 
0.278431 0.270588 
0.372549 0.380392 
0.356863 0.294118 
0.490196 0.4 
0.392157 0.286275 
0.341176 0.32549 
0.231373 0.317647 
0.290196 0.231373 
0.294118 0.482353 
0.286275 0.227451 
0.470588 0.364706 
0.509804 0.403922 
0.466667 0.447059 
0.34902 0.254902 
0.286275 0.278431 
0.380392 0.498039 
0.27451 0.215686 
0.262745 0.568627 
0.333333 0.392157 
0.443137 0.498039 
0.309804 0.247059 
0.329412 0.337255 
0.215686 0.482353 
0.27451 0.258824 
0.278431 0.384314 
0.356863 0.270588 
0.223529 0.372549 
0.305882 0.333333 
0.215686 0.270588 
0.45098 0.258824 
0.203922 0.286275 
0.243137 0.329412 
0.486275 0.309804 
0.392157 0.470588 
0.219608 0.219608 
0.278431 0.376471 
0.298039 0.298039 
0.231373 0.294118 
0.498039 0.356863 
0.509804 0.537255 
0.454902 0.231373 
0.54902 0.498039 
0.282353 0.207843 
0.215686 0.258824 
0.352941 0.333333 
0.196078 0.211765 
0.258824 0.207843 
0.196078 0.333333 
0.215686 0.211765 
0.537255 0.258824 
0.501961 0.258824 
0.352941 0.498039 
0.54902 0.368627 
0.231373 0.282353 
0.231373 0.282353 
0.223529 0.282353 
0.321569 0.407843 
0.376471 0.384314 
0.231373 0.294118 
0.345098 0.494118 
0.454902 0.466667 
0.356863 0.356863 
0.54902 0.501961 
0.368627 0.501961 
0.54902 0.356863 
0.231373 0.294118 
0.282353 0.286275 
0.364706 0.231373 
0.27451 0.509804 
0.439216 0.423529 
0.364706 0.235294 
0.196078 0.513725 
0.333333 0.345098 
0.223529 0.270588 
0.266667 0.352941 
0.419608 0.321569 
0.533333 0.333333 
0.592157 0.345098 
0.572549 0.34902 
0.607843 0.337255 
0.607843 0.407843 
0.560784 0.239216 
0.2 0.203922 
0.247059 0.576471 
0.396078 0.396078 
0.560784 0.658824 
0.2 0.243137 
0.301961 0.576471 
0.407843 0.407843 
0.560784 0.301961 
0.658824 0.658824 
0.560784 0.301961 
0.407843 0.407843 
0.564706 0.313725 
0.654902 0.231373 
0.282353 0.278431 
0.231373 0.239216 
0.658824 0.564706 
0.239216 0.407843 
0.239216 0.309804 
0.227451 0.235294 
0.286275 0.27451 
0.607843 0.509804 
0.223529 0.352941 
0.207843 0.203922 
0.32549 0.247059 
0.203922 0.278431 
0.215686 0.270588 
0.356863 0.278431 
0.278431 0.352941 
0.352941 0.294118 
0.235294 0.203922 
0.431373 0.356863 
0.247059 0.329412 
0.427451 0.431373 
0.231373 0.317647 
0.282353 0.384314 
0.443137 0.356863 
0.584314 0.196078 
0.239216 0.223529 
0.34902 0.223529 
0.603922 0.333333 
0.619608 0.27451 
0.490196 0.537255 
0.239216 0.196078 
0.686275 0.4 
0.584314 0.333333 
0.419608 0.266667 
0.207843 0.207843 
0.427451 0.266667 
0.376471 0.505882 
0.321569 0.517647 
0.321569 0.423529 
0.419608 0.513725 
0.329412 0.505882 
0.376471 0.54902 
0.317647 0.588235 
0.47451 0.364706 
0.278431 0.439216 
0.337255 0.572549 
0.341176 0.25098 
0.239216 0.368627 
0.32549 0.215686 
0.360784 0.34902 
0.196078 0.235294 
0.321569 0.196078 
0.34902 0.196078 
0.235294 0.321569 
0.196078 0.352941 
0.196078 0.235294 
0.321569 0.196078 
0.352941 0.196078 
0.235294 0.321569 
0.196078 0.356863 
0.196078 0.235294 
0.321569 0.196078 
0.356863 0.239216 
0.356863 0.25098 
0.364706 0.368627 
0.215686 0.329412 
0.454902 0.337255 
0.223529 0.584314 
0.215686 0.572549 
0.439216 0.290196 
0.341176 0.239216 
0.313725 0.235294 
0.309804 0.235294 
0.309804 0.235294 
0.309804 0.239216 
0.313725 0.341176 
0.439216 0.572549 
0.215686 0.290196 
0.584314 0.466667 
0.388235 0.215686 
0.317647 0.443137 
0.329412 0.223529 
0.545098 0.223529 
0.537255 0.439216 
0.309804 0.360784 
0.352941 0.435294 
0.564706 0.215686 
0.278431 0.580392 
0.45098 0.219608 
0.32549 0.458824 
0.333333 0.607843 
0.552941 0.423529 
0.592157 0.443137 
0.419608 0.356863 
0.439216 0.505882 
0.529412 0.376471 
0.427451 0.662745 
0.443137 0.643137 
0.431373 0.67451 
0.435294 0.670588 
0.482353 0.635294 
0.341176 0.309804 
0.482353 0.631373 
0.631373 0.458824 
0.309804 0.223529 
0.301961 0.631373 
0.470588 0.392157 
0.494118 0.631373 
0.364706 0.309804 
0.223529 0.223529 
0.282353 0.619608 
0.470588 0.392157 
0.494118 0.631373 
0.380392 0.301961 
0.223529 0.345098 
0.223529 0.278431 
0.290196 0.290196 
0.360784 0.384314 
0.392157 0.619608 
0.470588 0.290196 
0.380392 0.376471 
0.356863 0.356863 
0.219608 0.294118 
0.27451 0.345098 
0.584314 0.435294 
0.25098 0.333333 
0.333333 0.247059 
0.345098 0.396078 
0.286275 0.235294 
0.345098 0.486275 
0.443137 0.282353 
0.388235 0.286275 
0.388235 0.454902 
0.345098 0.203922 
0.294118 0.2 
0.286275 0.415686 
0.513725 0.513725 
0.372549 0.211765 
0.294118 0.27451 
0.227451 0.196078 
0.247059 0.239216 
0.47451 0.341176 
0.52549 0.439216 
0.647059 0.313725 
0.415686 0.27451 
0.341176 0.337255 
0.298039 0.372549 
0.4 0.227451 
0.309804 0.258824 
0.309804 0.364706 
0.658824 0.388235 
0.203922 0.262745 
0.596078 0.301961 
0.227451 0.552941 
0.294118 0.454902 
0.580392 0.65098 
0.478431 0.419608 
0.392157 0.592157 
0.407843 0.580392 
0.384314 0.580392 
0.454902 0.603922 
0.372549 0.223529 
0.290196 0.513725 
0.431373 0.223529 
0.537255 0.290196 
0.423529 0.447059 
0.364706 0.235294 
0.482353 0.478431 
0.470588 0.470588 
0.478431 0.482353 
0.482353 0.482353 
0.486275 0.490196 
0.490196 0.45098 
0.239216 0.364706 
0.458824 0.356863 
0.231373 0.560784 
0.643137 0.52549 
0.372549 0.427451 
0.396078 0.388235 
0.388235 0.388235 
0.396078 0.427451 
0.52549 0.643137 
0.368627 0.568627 
0.498039 0.431373 
0.219608 0.32549 
0.439216 0.32549 
0.219608 0.54902 
0.196078 0.529412 
0.443137 0.27451 
0.423529 0.501961 
0.627451 0.341176 
0.54902 0.435294 
0.203922 0.313725 
0.439216 0.286275 
0.196078 0.556863 
0.223529 0.533333 
0.4 0.309804 
0.435294 0.52549 
0.596078 0.278431 
0.278431 0.372549 
0.490196 0.207843 
0.337255 0.258824 
0.203922 0.513725 
0.333333 0.227451 
0.211765 0.509804 
0.298039 0.541176 
0.360784 0.243137 
0.223529 0.517647 
0.309804 0.537255 
0.317647 0.211765 
0.560784 0.380392 
0.447059 0.572549 
0.309804 0.211765 
0.682353 0.517647 
0.360784 0.403922 
0.490196 0.580392 
0.678431 0.529412 
0.309804 0.215686 
0.431373 0.341176 
0.403922 0.490196 
0.580392 0.670588 
0.529412 0.305882 
0.211765 0.447059 
0.411765 0.384314 
0.443137 0.482353 
0.341176 0.498039 
0.670588 0.529412 
0.478431 0.447059 
0.439216 0.423529 
0.372549 0.419608 
0.196078 0.270588 
0.423529 0.52549 
0.419608 0.45098 
0.266667 0.356863 
0.494118 0.196078 
0.2 0.298039 
0.294118 0.494118 
0.45098 0.380392 
0.388235 0.509804 
0.6 0.6 
0.470588 0.388235 
0.196078 0.290196 
0.470588 0.505882 
0.384314 0.278431 
0.376471 0.52549 
0.290196 0.215686 
0.25098 0.392157 
0.341176 0.415686 
0.407843 0.45098 
0.211765 0.321569 
0.4 0.482353 
0.701961 0.443137 
0.32549 0.403922 
0.498039 0.478431 
0.278431 0.368627 
0.392157 0.243137 
0.32549 0.262745 
0.647059 0.368627 
0.611765 0.364706 
0.533333 0.286275 
0.211765 0.223529 
0.556863 0.305882 
0.211765 0.509804 
0.298039 0.462745 
0.639216 0.439216 
0.219608 0.501961 
0.305882 0.654902 
0.431373 0.537255 
0.360784 0.588235 
0.372549 0.278431 
0.286275 0.603922 
0.360784 0.529412 
0.505882 0.196078 
0.227451 0.333333 
0.247059 0.2 
0.294118 0.490196 
0.396078 0.278431 
0.258824 0.262745 
0.266667 0.286275 
0.317647 0.337255 
0.341176 0.341176 
0.337255 0.317647 
0.286275 0.25098 
0.2 0.494118 
0.294118 0.286275 
0.403922 0.2 
0.294118 0.482353 
0.34902 0.247059 
0.270588 0.611765 
0.513725 0.34902 
0.47451 0.466667 
0.466667 0.466667 
0.47451 0.513725 
0.611765 0.270588 
0.34902 0.219608 
0.541176 0.313725 
0.431373 0.227451 
0.317647 0.431373 
0.313725 0.223529 
0.552941 0.615686 
0.52549 0.356863 
0.45098 0.447059 
0.498039 0.572549 
0.219608 0.270588 
0.545098 0.423529 
0.203922 0.301961 
0.541176 0.380392 
0.607843 0.439216 
0.619608 0.486275 
0.396078 0.403922 
0.513725 0.611765 
0.27451 0.352941 
0.4 0.352941 
0.466667 0.219608 
0.329412 0.301961 
0.317647 0.301961 
0.207843 0.6 
0.384314 0.396078 
0.466667 0.517647 
0.215686 0.254902 
0.309804 0.286275 
0.482353 0.298039 
0.207843 0.603922 
0.392157 0.427451 
0.552941 0.313725 
0.223529 0.635294 
0.45098 0.219608 
0.270588 0.403922 
0.494118 0.584314 
0.576471 0.419608 
0.321569 0.231373 
0.223529 0.270588 
0.592157 0.494118 
0.407843 0.494118 
0.584314 0.4 
0.321569 0.231373 
0.223529 0.270588 
0.592157 0.513725 
0.4 0.466667 
0.52549 0.478431 
0.580392 0.4 
0.313725 0.223529 
0.25098 0.223529 
0.270588 0.223529 
0.592157 0.513725 
0.313725 0.576471 
0.521569 0.494118 
0.454902 0.494118 
0.34902 0.509804 
0.611765 0.509804 
0.556863 0.447059 
0.231373 0.317647 
0.388235 0.227451 
0.317647 0.396078 
0.486275 0.6 
0.556863 0.470588 
0.27451 0.352941 
0.258824 0.341176 
0.490196 0.360784 
0.270588 0.376471 
0.47451 0.611765 
0.270588 0.368627 
0.431373 0.376471 
0.466667 0.486275 
0.564706 0.380392 
0.478431 0.572549 
0.270588 0.352941 
0.552941 0.27451 
0.227451 0.47451 
0.556863 0.427451 
0.384314 0.219608 
0.309804 0.486275 
0.2 0.254902 
0.494118 0.701961 
0.439216 0.670588 
0.431373 0.482353 
0.231373 0.2 
0.356863 0.505882 
0.254902 0.352941 
0.384314 0.34902 
0.407843 0.501961 
0.227451 0.333333 
0.282353 0.615686 
0.360784 0.631373 
0.392157 0.482353 
0.223529 0.286275 
0.32549 0.294118 
0.537255 0.27451 
0.223529 0.6 
0.384314 0.592157 
0.388235 0.494118 
0.247059 0.207843 
0.615686 0.431373 
0.486275 0.262745 
0.207843 0.666667 
0.427451 0.415686 
0.333333 0.466667 
0.305882 0.211765 
0.298039 0.321569 
0.258824 0.592157 
0.341176 0.470588 
0.439216 0.290196 
0.219608 0.329412 
0.294118 0.32549 
0.447059 0.411765 
0.329412 0.298039 
0.45098 0.415686 
0.317647 0.243137 
0.333333 0.52549 
0.411765 0.294118 
0.376471 0.372549 
0.32549 0.294118 
0.337255 0.345098 
0.262745 0.529412 
0.411765 0.360784 
0.219608 0.227451 
0.345098 0.337255 
0.486275 0.227451 
0.345098 0.454902 
0.45098 0.384314 
0.286275 0.466667 
0.466667 0.219608 
0.337255 0.45098 
0.486275 0.454902 
0.286275 0.384314 
0.352941 0.372549 
0.392157 0.270588 
0.2 0.462745 
0.482353 0.372549 
0.482353 0.380392 
0.490196 0.407843 
0.529412 0.207843 
0.278431 0.407843 
0.207843 0.360784 
0.529412 0.278431 
0.470588 0.392157 
0.203922 0.270588 
0.513725 0.392157 
0.603922 0.45098 
0.521569 0.407843 
0.207843 0.27451 
0.282353 0.215686 
0.239216 0.6 
0.556863 0.301961 
0.545098 0.545098 
0.545098 0.556863 
0.6 0.239216 
0.301961 0.541176 
0.411765 0.207843 
0.27451 0.541176 
0.403922 0.647059 
0.470588 0.239216 
0.607843 0.533333 
0.301961 0.427451 
0.427451 0.52549 
0.568627 0.639216 
0.321569 0.533333 
0.396078 0.596078 
0.439216 0.286275 
0.223529 0.235294 
0.576471 0.435294 
0.298039 0.466667 
0.596078 0.235294 
0.290196 0.447059 
0.243137 0.372549 
0.301961 0.207843 
0.278431 0.545098 
0.392157 0.6 
0.392157 0.196078 
0.482353 0.25098 
0.435294 0.564706 
0.219608 0.282353 
0.309804 0.462745 
0.27451 0.419608 
0.309804 0.498039 
0.286275 0.384314 
0.533333 0.27451 
0.207843 0.690196 
0.470588 0.47451 
0.380392 0.435294 
0.403922 0.505882 
0.207843 0.321569 
0.278431 0.207843 
0.27451 0.301961 
0.203922 0.313725 
0.270588 0.298039 
0.564706 0.419608 
0.415686 0.454902 
0.560784 0.286275 
0.384314 0.368627 
0.203922 0.258824 
0.419608 0.462745 
0.431373 0.564706 
0.286275 0.376471 
0.388235 0.247059 
0.286275 0.239216 
0.27451 0.403922 
0.501961 0.588235 
0.517647 0.321569 
0.435294 0.243137 
0.286275 0.372549 
0.505882 0.235294 
0.317647 0.419608 
0.439216 0.494118 
0.2 0.270588 
0.290196 0.364706 
0.290196 0.227451 
0.635294 0.478431 
0.239216 0.266667 
0.270588 0.407843 
0.505882 0.286275 
0.384314 0.321569 
0.411765 0.207843 
0.266667 0.317647 
0.407843 0.494118 
0.392157 0.2 
0.270588 0.290196 
0.54902 0.427451 
0.360784 0.407843 
0.501961 0.588235 
0.65098 0.560784 
0.235294 0.243137 
0.270588 0.372549 
0.211765 0.286275 
0.290196 0.227451 
0.462745 0.415686 
0.227451 0.294118 
0.34902 0.207843 
0.317647 0.270588 
0.486275 0.392157 
0.203922 0.278431 
0.501961 0.470588 
0.321569 0.215686 
0.298039 0.333333 
0.294118 0.45098 
0.415686 0.454902 
0.431373 0.560784 
0.278431 0.376471 
0.333333 0.407843 
0.494118 0.54902 
0.65098 0.580392 
0.454902 0.278431 
0.298039 0.427451 
0.286275 0.384314 
0.215686 0.223529 
0.607843 0.545098 
0.247059 0.290196 
0.380392 0.223529 
0.207843 0.345098 
0.345098 0.447059 
0.462745 0.462745 
0.298039 0.235294 
0.458824 0.227451 
0.286275 0.34902 
0.223529 0.278431 
0.509804 0.470588 
0.341176 0.462745 
0.321569 0.223529 
0.278431 0.341176 
0.215686 0.458824 
0.329412 0.447059 
0.352941 0.403922 
0.454902 0.403922 
0.65098 0.580392 
0.219608 0.258824 
0.333333 0.427451 
0.4 0.45098 
0.282353 0.380392 
0.235294 0.298039 
0.564706 0.211765 
0.227451 0.321569 
0.352941 0.435294 
0.203922 0.607843 
0.533333 0.568627 
0.207843 0.211765 
0.317647 0.321569 
0.427451 0.47451 
0.27451 0.435294 
0.427451 0.6 
0.211765 0.207843 
0.321569 0.317647 
0.435294 0.427451 
0.239216 0.298039 
0.235294 0.298039 
0.231373 0.211765 
0.352941 0.32549 
0.47451 0.435294 
0.596078 0.537255 
0.27451 0.227451 
0.411765 0.341176 
0.27451 0.203922 
0.290196 0.454902 
0.486275 0.407843 
0.494118 0.580392 
0.490196 0.482353 
0.403922 0.231373 
0.294118 0.521569 
0.219608 0.282353 
0.388235 0.478431 
0.572549 0.294118 
0.231373 0.545098 
0.564706 0.419608 
0.435294 0.568627 
0.227451 0.286275 
0.556863 0.658824 
0.470588 0.443137 
0.619608 0.32549 
0.541176 0.223529 
0.286275 0.431373 
0.576471 0.309804 
0.54902 0.278431 
0.235294 0.447059 
0.537255 0.4 
0.490196 0.196078 
0.25098 0.215686 
0.258824 0.619608 
0.447059 0.505882 
0.247059 0.196078 
0.203922 0.501961 
0.254902 0.607843 
0.431373 0.423529 
0.45098 0.435294 
0.564706 0.286275 
0.384314 0.368627 
0.435294 0.607843 
0.321569 0.686275 
0.47451 0.470588 
0.427451 0.203922 
0.266667 0.313725 
0.572549 0.423529 
0.239216 0.266667 
0.54902 0.286275 
0.682353 0.47451 
0.407843 0.407843 
0.54902 0.282353 
0.356863 0.380392 
0.207843 0.317647 
0.231373 0.247059 
0.494118 0.207843 
0.278431 0.545098 
0.313725 0.203922 
0.254902 0.380392 
0.231373 0.352941 
0.203922 0.254902 
0.309804 0.431373 
0.203922 0.278431 
0.478431 0.203922 
0.27451 0.564706 
0.396078 0.223529 
0.501961 0.266667 
0.392157 0.478431 
0.282353 0.380392 
0.392157 0.419608 
0.52549 0.282353 
0.352941 0.380392 
0.435294 0.329412 
0.219608 0.576471 
0.439216 0.196078 
0.498039 0.247059 
0.254902 0.203922 
0.309804 0.231373 
0.247059 0.380392 
0.231373 0.352941 
0.203922 0.254902 
0.309804 0.52549 
0.419608 0.203922 
0.27451 0.478431 
0.203922 0.27451 
0.462745 0.427451 
0.286275 0.215686 
0.219608 0.545098 
0.419608 0.286275 
0.388235 0.478431 
0.286275 0.388235 
0.396078 0.419608 
0.52549 0.27451 
0.329412 0.372549 
0.419608 0.278431 
0.211765 0.537255 
0.196078 0.431373 
0.294118 0.568627 
0.439216 0.388235 
0.258824 0.227451 
0.34902 0.215686 
0.231373 0.352941 
0.2 0.470588 
0.266667 0.282353 
0.380392 0.364706 
0.443137 0.47451 
0.203922 0.27451 
0.27451 0.2 
0.298039 0.294118 
0.439216 0.380392 
0.247059 0.290196 
0.305882 0.4 
0.278431 0.207843 
0.52549 0.219608 
0.52549 0.286275 
0.223529 0.211765 
0.32549 0.345098 
0.203922 0.211765 
0.313725 0.211765 
0.32549 0.231373 
0.321569 0.352941 
0.203922 0.466667 
0.27451 0.435294 
0.435294 0.372549 
0.423529 0.435294 
0.47451 0.219608 
0.333333 0.258824 
0.4 0.45098 
0.203922 0.282353 
0.27451 0.223529 
0.341176 0.278431 
0.427451 0.458824 
0.329412 0.227451 
0.34902 0.286275 
0.215686 0.223529 
0.470588 0.223529 
0.509804 0.227451 
0.227451 0.196078 
0.470588 0.290196 
0.6 0.458824 
0.384314 0.341176 
0.345098 0.380392 
0.447059 0.462745 
0.462745 0.345098 
0.462745 0.341176 
0.454902 0.34902 
0.270588 0.215686 
0.486275 0.564706 
0.584314 0.196078 
0.196078 0.247059 
0.584314 0.247059 
0.564706 0.486275 
0.34902 0.203922 
0.258824 0.486275 
0.337255 0.635294 
0.572549 0.486275 
0.592157 0.2 
0.2 0.247059 
0.584314 0.486275 
0.337255 0.635294 
0.501961 0.290196 
0.231373 0.341176 
0.647059 0.501961 
0.552941 0.352941 
0.647059 0.494118 
0.231373 0.215686 
0.215686 0.215686 
0.231373 0.341176 
0.643137 0.490196 
0.290196 0.235294 
0.219608 0.611765 
0.505882 0.262745 
0.360784 0.278431 
0.278431 0.360784 
0.501961 0.6 
0.203922 0.235294 
0.247059 0.231373 
0.290196 0.560784 
0.352941 0.65098 
0.486275 0.666667 
0.517647 0.356863 
0.360784 0.278431 
0.372549 0.533333 
0.67451 0.34902 
0.545098 0.34902 
0.627451 0.482353 
0.27451 0.219608 
0.568627 0.305882 
0.513725 0.658824 
0.345098 0.227451 
0.286275 0.486275 
0.643137 0.341176 
0.247059 0.556863 
0.301961 0.501961 
0.631373 0.34902 
0.529412 0.227451 
0.286275 0.490196 
0.596078 0.560784 
0.309804 0.545098 
0.231373 0.290196 
0.482353 0.623529 
0.337255 0.258824 
0.211765 0.588235 
0.372549 0.486275 
0.639216 0.4 
0.494118 0.619608 
0.694118 0.537255 
0.635294 0.486275 
0.337255 0.356863 
0.494118 0.596078 
0.372549 0.231373 
0.290196 0.490196 
0.611765 0.258824 
0.211765 0.227451 
0.266667 0.541176 
0.360784 0.34902 
0.627451 0.521569 
0.211765 0.266667 
0.541176 0.231373 
0.290196 0.356863 
0.494118 0.588235 
0.372549 0.592157 
0.564706 0.243137 
0.196078 0.227451 
0.235294 0.278431 
0.482353 0.470588 
0.564706 0.584314 
0.207843 0.34902 
0.196078 0.25098 
0.2 0.611765 
0.247059 0.521569 
0.211765 0.270588 
0.196078 0.27451 
0.360784 0.490196 
0.556863 0.368627 
0.2 0.580392 
0.25098 0.560784 
0.494118 0.235294 
0.278431 0.196078 
0.478431 0.356863 
0.219608 0.196078 
0.345098 0.219608 
0.262745 0.231373 
0.196078 0.211765 
0.266667 0.611765 
0.505882 0.211765 
0.196078 0.360784 
0.196078 0.227451 
0.27451 0.356863 
0.278431 0.494118 
0.596078 0.2 
0.196078 0.211765 
0.258824 0.266667 
0.345098 0.482353 
0.584314 0.203922 
0.243137 0.584314 
0.494118 0.258824 
0.207843 0.211765 
0.345098 0.356863 
0.513725 0.662745 
0.215686 0.658824 
0.501961 0.34902 
0.356863 0.521569 
0.686275 0.215686 
0.239216 0.294118 
0.513725 0.666667 
0.372549 0.207843 
0.564706 0.352941 
0.364706 0.603922 
0.317647 0.611765 
0.247059 0.505882 