# vtk DataFile Version 4.2
vtk output
ASCII
DATASET POLYDATA
POINTS 239 float
153.858 187.282 -11.6802 154.419 187.256 -11.5863 154.709 186.85 -10.5674 
153.617 186.769 -10.702 153.358 188.309 -12.002 154.355 188.088 -11.7485 
152.956 187.62 -11.3985 154.979 187.951 -10.6331 151.908 188.185 -10.8968 
152.246 188.912 -11.8854 151.553 190.53 -12.0685 153.149 190.187 -12.0166 
154.167 189.203 -11.7523 154.636 189.442 -10.776 153.922 185.871 -8.7178 
152.429 186.781 -8.89874 152.59 187.084 -10.2866 155.407 186.007 -8.61035 
155.649 187.694 -8.73437 154.974 189.874 -9.05587 150.891 189.723 -11.0649 
149.93 191.092 -10.8812 150.422 191.472 -11.8754 150.054 192.995 -12.0288 
151.25 192.652 -12.3139 152.468 192.283 -12.0149 153.913 190.788 -11.0312 
153.231 192.462 -10.9108 151.163 188.171 -9.11292 150.472 189.388 -9.83193 
149.638 190.518 -9.15289 154.308 191.071 -9.80954 153.772 192.498 -9.15377 
149.184 192.951 -10.8987 149.665 195.098 -12.1483 150.984 194.887 -12.1447 
148.555 195.178 -11.037 152.036 193.813 -11.8947 148.587 192.786 -9.12698 
148.114 194.416 -9.75716 152.479 194.197 -10.8944 152.734 194.74 -9.16399 
149.248 197.424 -12.6215 150.243 197.195 -12.2215 148.465 197.552 -11.5414 
151.64 195.654 -11.0946 150.909 197.504 -10.9746 147.522 195.469 -8.95516 
147.768 196.1 -10.2496 147.588 197.826 -10.5142 152.013 195.975 -9.85296 
151.507 197.475 -9.16317 148.688 199.875 -14.0725 149.701 198.916 -12.5284 
148.688 199.875 -11.635 150.033 199.624 -11.0207 147.456 200.14 -10.9827 
150.719 199.811 -9.12993 147.815 200.785 -12.4861 147.518 202.331 -12.0999 
148.287 202.102 -12.5476 148.933 202.05 -11.5075 149.803 201.882 -10.5084 
150.271 202.096 -8.97631 146.898 202.282 -10.8275 147.394 203.948 -11.8393 
148.069 203.905 -11.9531 146.844 204.094 -10.7906 148.798 204.091 -10.9415 
147.11 197.68 -8.97616 146.759 200.003 -9.0669 146.215 202.434 -8.91578 
146.252 204.383 -9.20322 149.571 203.51 -10.2121 147.433 204.92 -11.6058 
147.843 204.919 -11.6452 147.24 205.294 -10.6133 148.083 205.332 -10.6828 
146.879 206.059 -8.67286 149.085 205.005 -9.65254 149.775 204.258 -8.9073 
148.435 206.242 -8.87234 230.208 204.211 -11.4845 230.486 204.213 -11.4847 
230.647 203.972 -10.5273 230.051 203.966 -10.5244 230.164 204.756 -11.5949 
230.537 204.76 -11.5969 229.832 204.759 -10.6506 230.884 204.778 -10.6616 
230.216 205.303 -11.4881 230.498 205.309 -11.4922 230.074 205.56 -10.5335 
230.681 205.583 -10.5519 231.004 203.426 -8.61111 229.7 203.404 -8.60852 
229.354 204.763 -9.09275 231.397 204.828 -9.11637 229.769 206.145 -8.61784 
231.133 206.251 -8.69392 153.674 185.715 -7.22129 152.399 186.671 -7.36072 
151.292 187.951 -7.35216 155.27 185.077 -7.84961 154.598 185.057 -7.88409 
154.647 184.944 -7.01509 150.272 189.121 -7.27044 150.229 189.155 -8.4878 
155.982 185.338 -7.50148 155.647 184.843 -6.96138 156.26 186.081 -7.8507 
156.458 185.667 -6.95999 156.317 186.82 -7.88834 155.767 187.971 -7.2039 
156.404 186.762 -7.00847 155.092 189.76 -7.32193 154.532 191.283 -8.46868 
154.48 191.306 -7.24986 149.555 190.603 -7.36736 148.725 192.466 -7.3278 
147.916 193.903 -7.23416 147.859 193.963 -8.41878 153.604 192.731 -7.33805 
152.775 194.616 -7.36709 152.217 196.197 -8.50028 152.135 196.221 -7.26189 
147.481 195.549 -7.31968 147.131 197.622 -7.33665 146.757 199.861 -7.33673 
151.332 197.752 -7.33754 150.681 199.93 -7.36339 146.221 202.01 -7.24208 
150.26 202.208 -7.32441 145.617 203.38 -7.05691 145.628 203.464 -8.03205 
145.619 204.579 -8.08025 149.889 204.392 -7.26249 145.907 205.594 -7.95 
149.353 205.755 -8.30168 149.448 206.279 -7.10025 230.618 202.425 -7.87094 
230.075 202.42 -7.87055 230.018 202.22 -7.04355 229.411 202.966 -7.15427 
228.672 203.734 -7.03315 228.811 203.858 -7.92639 228.647 204.758 -8.03273 
231.29 203.001 -7.14629 230.675 202.228 -7.04158 231.902 203.94 -7.92306 
232.044 203.851 -7.01545 232.099 204.923 -8.03383 228.839 205.663 -7.92454 
231.979 205.967 -7.93603 145.802 205.739 -7.01715 146.64 206.545 -7.11897 
147.412 207.141 -7.89299 148.1 207.213 -7.93934 147.447 207.36 -6.99515 
148.866 206.886 -7.62765 148.434 207.466 -6.99166 228.708 205.786 -7.01472 
229.522 206.579 -7.11314 230.276 207.154 -7.86122 230.917 207.204 -7.8753 
230.315 207.371 -6.98471 231.645 206.92 -7.53268 232.167 206.457 -6.96059 
231.274 207.478 -6.95998 155.595 185.039 -6.15038 154.739 185.156 -6.26357 
153.978 186.191 -6.10506 156.297 184.988 -6.58867 156.237 185.052 -6.1341 
152.643 186.926 -6.33361 151.834 188.394 -6.07587 150.607 189.287 -6.31064 
155.222 187.638 -6.05941 156.176 186.672 -6.24661 154.539 189.691 -6.14142 
156.266 185.73 -6.14738 150.145 190.709 -6.13381 149.398 192.926 -5.99135 
154.124 191.152 -6.28428 148.283 194.026 -6.28064 152.94 192.256 -5.99772 
152.178 194.51 -6.12179 148.042 195.517 -6.1444 147.787 197.594 -6.10394 
151.766 196.051 -6.27727 147.43 199.925 -6.07466 150.654 197.226 -5.98393 
149.994 199.835 -6.07165 146.865 202.438 -5.98623 149.622 202.222 -6.07759 
145.931 203.473 -6.23623 149.388 204.412 -6.06307 230.612 202.382 -6.36796 
230.085 202.374 -6.37358 229.736 203.295 -6.18375 230.978 203.33 -6.16328 
228.87 203.825 -6.30557 231.853 203.955 -6.26815 145.5 204.628 -7.00745 
145.881 204.614 -6.13797 146.02 205.644 -6.24417 149.187 206.201 -6.07892 
228.458 204.758 -7.00261 228.787 204.764 -6.17978 228.909 205.705 -6.26328 
232.303 205.052 -6.96767 231.981 205.054 -6.09483 231.959 206.402 -6.06977 
146.972 206.198 -6.03467 147.552 207.202 -6.22661 149.12 207.222 -6.62635 
149.041 207.154 -6.10615 229.841 206.276 -6.06604 230.42 207.23 -6.23462 
231.937 207.283 -6.57846 231.872 207.226 -6.09493 148.376 207.273 -6.10288 
231.228 207.314 -6.10864 155.374 186.01 -5.91182 153.569 187.997 -5.75199 
151.531 190.388 -5.63655 153.193 190.076 -5.65703 151.162 192.601 -5.58423 
149.25 195.164 -5.61769 150.833 194.889 -5.60642 149.055 197.456 -5.61166 
148.707 199.875 -5.62003 148.385 202.27 -5.59333 146.896 204.497 -5.72245 
148.269 204.439 -5.56003 229.756 204.79 -5.83039 231.02 204.865 -5.75166 
148.25 206.213 -5.74095 231.078 206.351 -5.79319 
POLYGONS 236 1180
4 0 1 2 3 
4 0 4 5 1 
4 0 3 6 4 
4 1 5 7 2 
4 4 6 8 9 
4 4 9 10 11 
4 4 11 12 5 
4 5 12 13 7 
4 3 14 15 16 
4 3 16 8 6 
4 3 2 17 14 
4 2 7 18 17 
4 7 13 19 18 
4 9 8 20 10 
4 10 20 21 22 
4 10 22 23 24 
4 10 24 25 11 
4 11 26 13 12 
4 11 25 27 26 
4 8 16 15 28 
4 8 28 29 20 
4 20 29 30 21 
4 26 31 19 13 
4 26 27 32 31 
4 22 21 33 23 
4 23 34 35 24 
4 23 33 36 34 
4 24 35 37 25 
4 21 30 38 33 
4 33 38 39 36 
4 25 37 40 27 
4 27 40 41 32 
4 34 42 43 35 
4 34 36 44 42 
4 35 45 40 37 
4 35 43 46 45 
4 36 39 47 48 
4 36 48 49 44 
4 45 50 41 40 
4 45 46 51 50 
4 42 52 53 43 
4 42 44 54 52 
4 43 53 55 46 
4 44 49 56 54 
4 46 55 57 51 
4 52 54 55 53 
4 52 54 56 58 
4 52 58 59 60 
4 52 60 61 54 
4 54 61 62 55 
4 55 62 63 57 
4 58 56 64 59 
4 59 65 66 60 
4 59 64 67 65 
4 60 66 68 61 
4 56 49 69 70 
4 56 70 71 64 
4 64 71 72 67 
4 61 68 73 62 
4 65 74 75 66 
4 65 67 76 74 
4 66 75 77 68 
4 67 72 78 76 
4 68 79 80 73 
4 68 77 81 79 
4 82 83 84 85 
4 82 86 87 83 
4 82 85 88 86 
4 83 87 89 84 
4 86 90 91 87 
4 86 88 92 90 
4 87 91 93 89 
4 85 84 94 95 
4 85 95 96 88 
4 84 89 97 94 
4 88 96 98 92 
4 89 93 99 97 
4 74 76 77 75 
4 76 78 81 77 
4 90 92 93 91 
4 92 98 99 93 
4 15 14 100 101 
4 15 101 102 28 
4 14 17 103 104 
4 14 104 105 100 
4 28 102 106 107 
4 28 107 30 29 
4 17 108 109 103 
4 17 110 111 108 
4 17 18 112 110 
4 18 113 114 112 
4 18 19 115 113 
4 31 32 116 19 
4 19 116 117 115 
4 30 107 106 118 
4 30 118 119 38 
4 38 119 120 121 
4 38 121 47 39 
4 32 122 117 116 
4 32 41 123 122 
4 50 51 124 41 
4 41 124 125 123 
4 48 47 69 49 
4 47 121 120 126 
4 47 126 127 69 
4 69 127 128 70 
4 51 129 125 124 
4 51 57 130 129 
4 70 128 131 71 
4 57 63 132 130 
4 71 131 133 134 
4 71 134 135 72 
4 62 73 80 63 
4 63 80 136 132 
4 72 135 137 78 
4 79 81 138 80 
4 80 138 139 136 
4 95 94 140 141 
4 95 141 142 143 
4 95 143 144 145 
4 95 145 146 96 
4 94 147 148 140 
4 94 149 150 147 
4 94 97 151 149 
4 96 146 152 98 
4 97 99 153 151 
4 78 137 154 155 
4 78 156 157 81 
4 78 155 158 156 
4 81 159 139 138 
4 81 157 160 159 
4 98 152 161 162 
4 98 163 164 99 
4 98 162 165 163 
4 99 166 167 153 
4 99 164 168 166 
4 104 103 109 105 
4 105 109 169 170 
4 105 170 171 100 
4 109 172 173 169 
4 109 108 111 172 
4 100 171 174 101 
4 101 174 175 102 
4 102 175 176 106 
4 113 177 178 114 
4 113 115 179 177 
4 110 112 114 111 
4 111 180 173 172 
4 111 114 178 180 
4 106 176 181 118 
4 118 181 182 119 
4 115 117 183 179 
4 119 182 184 120 
4 122 185 183 117 
4 122 123 186 185 
4 120 184 187 126 
4 126 187 188 127 
4 123 125 189 186 
4 127 188 190 128 
4 129 191 189 125 
4 129 130 192 191 
4 128 190 193 131 
4 130 132 194 192 
4 131 193 195 133 
4 132 136 196 194 
4 141 140 148 142 
4 142 148 197 198 
4 142 198 199 143 
4 148 147 200 197 
4 143 199 201 144 
4 147 150 202 200 
4 134 133 203 135 
4 135 203 154 137 
4 133 195 204 203 
4 203 204 205 154 
4 136 139 206 196 
4 145 144 207 146 
4 146 207 161 152 
4 144 201 208 207 
4 207 208 209 161 
4 149 151 210 150 
4 151 153 167 210 
4 150 210 211 202 
4 210 167 212 211 
4 154 205 213 155 
4 155 213 214 158 
4 159 160 215 139 
4 139 215 216 206 
4 161 209 217 162 
4 162 217 218 165 
4 166 168 219 167 
4 167 219 220 212 
4 156 158 160 157 
4 158 214 221 160 
4 160 221 216 215 
4 163 165 168 164 
4 165 218 222 168 
4 168 222 220 219 
4 170 169 223 171 
4 169 173 180 223 
4 171 224 175 174 
4 171 223 177 224 
4 223 180 178 177 
4 175 225 181 176 
4 175 224 226 225 
4 224 177 179 226 
4 181 225 227 182 
4 225 226 185 227 
4 226 179 183 185 
4 182 228 187 184 
4 182 227 229 228 
4 227 185 186 229 
4 187 228 230 188 
4 228 229 191 230 
4 229 186 189 191 
4 188 230 231 190 
4 230 191 192 231 
4 190 231 232 193 
4 231 192 194 232 
4 193 233 204 195 
4 193 232 234 233 
4 232 194 196 234 
4 198 197 200 199 
4 199 235 208 201 
4 199 200 236 235 
4 200 202 211 236 
4 204 233 213 205 
4 233 234 237 213 
4 234 196 206 237 
4 208 235 217 209 
4 235 236 238 217 
4 236 211 212 238 
4 213 237 221 214 
4 237 206 216 221 
4 217 238 222 218 
4 238 212 220 222 

POINT_DATA 239
COLOR_SCALARS scalars 1
0.262745 0.231373 0.341176 
0.396078 0.364706 
0.270588 0.545098 
0.403922 0.431373 
0.290196 0.360784 
0.360784 0.207843 
0.309804 0.513725 
0.32549 0.25098 
0.454902 0.533333 
0.403922 0.537255 
0.309804 0.207843 
0.290196 0.384314 
0.298039 0.537255 
0.443137 0.556863 
0.698039 0.403922 
0.698039 0.576471 
0.431373 0.321569 
0.352941 0.482353 
0.207843 0.564706 
0.627451 0.309804 
0.407843 0.305882 
0.278431 0.454902 
0.52549 0.419608 
0.290196 0.219608 
0.235294 0.682353 
0.545098 0.282353 
0.196078 0.423529 
0.294118 0.294118 
0.388235 0.196078 
0.270588 0.301961 
0.45098 0.231373 
0.313725 0.403922 
0.301961 0.305882 
0.45098 0.458824 
0.313725 0.388235 
0.529412 0.592157 
0.215686 0.231373 
0.231373 0.345098 
0.34902 0.458824 
0.6 0.290196 
0.462745 0.231373 
0.231373 0.345098 
0.345098 0.294118 
0.294118 0.439216 
0.439216 0.231373 
0.231373 0.345098 
0.345098 0.458824 
0.454902 0.572549 
0.576471 0.454902 
0.458824 0.572549 
0.34902 0.580392 
0.207843 0.215686 
0.290196 0.27451 
0.247059 0.556863 
0.317647 0.207843 
0.321569 0.219608 
0.607843 0.309804 
0.470588 0.254902 
0.298039 0.45098 
0.611765 0.278431 
0.231373 0.623529 
0.454902 0.25098 
0.294118 0.364706 
0.407843 0.47451 
0.603922 0.47451 
0.592157 0.415686 
0.278431 0.227451 
0.27451 0.396078 
0.215686 0.219608 
0.341176 0.203922 
0.203922 0.286275 
0.529412 0.27451 
0.211765 0.266667 
0.54902 0.290196 
0.215686 0.309804 
0.27451 0.207843 
0.219608 0.305882 
0.560784 0.207843 
0.211765 0.341176 
0.580392 0.364706 
0.235294 0.509804 
0.2 0.207843 
0.278431 0.560784 
0.333333 0.313725 
0.427451 0.364706 
0.627451 0.203922 
0.305882 0.372549 
0.603922 0.301961 
0.686275 0.4 
0.533333 0.431373 
0.498039 0.658824 
0.341176 0.321569 
0.666667 0.505882 
0.443137 0.505882 
0.341176 0.556863 
0.662745 0.560784 
0.654902 0.517647 
0.329412 0.505882 
0.380392 0.372549 
0.607843 0.635294 
0.333333 0.4 
0.34902 0.423529 
0.396078 0.462745 
0.298039 0.333333 
0.258824 0.380392 
0.482353 0.45098 
0.662745 0.478431 
0.223529 0.345098 
0.568627 0.352941 
0.203922 0.305882 
0.517647 0.423529 
0.654902 0.784314 
0.768627 0.776471 
0.819608 0.745098 
0.772549 0.74902 
0.733333 0.756863 
0.729412 0.768627 
0.666667 0.737255 
0.694118 0.658824 

