# vtk DataFile Version 4.2
vtk output
ASCII
DATASET POLYDATA
POINTS 782 float
234.334 194.848 -20.7477 234.788 194.728 -20.3168 235.092 194.255 -19.0428 
234.103 194.289 -19.3008 234 195.75 -22.32 234.685 195.321 -20.7393 
234 195.75 -20.07 235.044 195.588 -19.2844 232.684 196.132 -19.4001 
233.082 196.54 -20.8209 232.713 197.715 -20.4354 233.476 197.51 -20.7495 
234.084 197.671 -19.4988 235.029 193.262 -18.3476 234.449 193.237 -18.423 
234.153 192.646 -17.2118 233.602 193.535 -18.0687 232.641 194.055 -17.3843 
233.089 194.74 -18.7975 236.075 193.901 -17.2593 235.348 192.765 -17.1305 
236.106 195.689 -17.248 234.926 197.01 -18.8222 235.416 197.655 -17.3783 
231.898 197.875 -19.302 232.603 198.692 -20.1837 233.111 198.628 -20.2107 
232.105 199.381 -19.2792 233.25 199.317 -19.1318 231.672 195.869 -17.5415 
231.324 197.306 -18.148 230.7 198.173 -17.2765 231.111 198.639 -18.4882 
231.133 199.73 -18.4274 234.589 198.433 -18.2075 234.103 199.752 -17.4788 
231.242 200.639 -18.1191 231.957 200.654 -18.4016 232.762 200.485 -18.405 
233.047 200.957 -17.198 234.25 191.577 -15.2022 232.939 192.368 -15.1802 
233.181 192.892 -16.6795 235.891 191.807 -15.2163 236.474 193.029 -15.9468 
236.819 194.124 -16.334 237.132 193.59 -15.0808 236.826 194.974 -16.3288 
231.999 193.723 -15.4164 231.237 195.216 -15.6179 230.579 196.531 -15.2872 
230.878 196.829 -16.7755 236.656 196.349 -15.5039 237.147 195.122 -15.0951 
236.057 197.899 -15.4183 235.011 199.016 -16.7917 235.31 199.42 -15.3091 
230.612 199.826 -17.1149 230.998 201.045 -16.9783 230.221 198.206 -15.3266 
230.188 200.026 -15.2511 230.687 201.732 -15.0201 234.378 200.51 -15.601 
233.309 201.59 -15.37 231.937 201.392 -17.0765 231.942 202.236 -15.1744 
233.684 191.053 -13.8058 232.597 191.729 -13.1676 231.43 193.529 -13.2971 
235.529 190.76 -14.1947 234.697 190.703 -14.1753 234.361 190.233 -12.8569 
230.95 194.883 -14.0717 236.447 191.129 -13.7772 235.902 190.22 -12.9106 
236.895 192.291 -14.5044 237.301 191.708 -12.9779 230.336 195.99 -13.2487 
236.981 196.665 -14.0248 237.489 195.572 -13.1789 236.593 198.053 -13.3033 
237.642 193.561 -13.1058 229.853 198.087 -13.2421 229.704 200.094 -13.2065 
235.557 200.034 -13.265 229.996 201.89 -13.115 234.617 200.974 -14.0581 
233.791 202.206 -13.2385 230.828 202.798 -14.0631 231.476 202.996 -14.1214 
230.597 203.163 -12.7209 232.508 202.756 -13.8102 231.827 203.459 -12.8193 
180.457 152.355 -13.5699 181.315 152.373 -13.5251 182.132 151.84 -12.7504 
180.019 151.791 -12.7898 180.007 153.158 -13.8166 181.271 153.169 -13.6736 
179.332 152.677 -13.3844 182.508 153.177 -13.0144 178.026 153.25 -13.0523 
178.966 153.544 -13.7116 178.978 154.235 -13.6732 180.012 154.181 -13.7019 
181.122 154.069 -13.503 181.987 154.739 -12.5171 180.124 150.629 -11.3428 
178.001 150.797 -10.7503 178.108 151.928 -12.2127 182.269 150.571 -11.4684 
184.489 151.687 -12.2552 184.507 150.513 -11.3439 184.531 153.014 -12.4555 
184.294 154.229 -11.9548 178.059 154.862 -13.0015 179.934 155.076 -12.9744 
176.584 152.242 -11.7695 175.887 153.417 -12.1616 175.755 155.103 -12.4155 
175.641 156.69 -12.0007 177.751 156.433 -12.0618 179.638 156.216 -12.0017 
181.063 155.887 -11.837 182.818 155.619 -10.9119 184.63 155.033 -10.6578 
181.428 156.41 -10.6197 234.465 189.305 -10.7094 233.048 190.287 -10.772 
233.254 190.621 -12.3161 235.99 189.26 -11.0805 236.949 190.44 -12.2292 
237.336 189.77 -10.5686 232.042 191.568 -11.0425 231.191 192.991 -11.2355 
230.501 194.311 -10.9304 230.69 194.567 -12.5033 237.973 191.525 -10.9459 
238.149 193.468 -10.9803 237.904 195.483 -11.0102 237.263 196.974 -12.4846 
237.469 197.219 -10.9188 229.957 196.035 -11.0516 229.458 198.08 -11.0662 
229.126 200.194 -11.0129 236.838 198.592 -11.2431 236.072 200.153 -11.0909 
229.381 202.131 -11.2034 234.915 201.364 -12.4901 235.212 201.672 -10.9172 
230.074 203.872 -10.5199 232.954 203.267 -12.3354 234.219 202.775 -11.1575 
233.172 203.777 -10.796 231.739 204.36 -10.711 175.963 151.663 -10.5713 
175.087 152.747 -11.1949 173.642 153.408 -10.528 174.313 154.023 -11.6584 
173.643 155.406 -11.8492 175.974 150.857 -8.76656 174.448 151.869 -8.65983 
174.586 152.208 -9.98286 177.322 150.344 -9.40132 180.327 149.792 -10.0243 
178.789 149.976 -9.84743 178.23 149.75 -8.60024 182.343 149.694 -10.0969 
184.525 149.647 -10.0769 186.761 151.61 -11.9672 186.756 150.473 -11.2271 
186.784 152.974 -12.0131 185.967 153.929 -11.6592 186.757 149.625 -10.0416 
189.021 151.476 -11.8444 189.006 150.426 -11.166 189.077 152.61 -11.8781 
187.604 153.675 -11.4112 189.257 153.531 -11.2783 186.814 154.441 -10.6297 
189.003 149.608 -10.0197 189.088 154.293 -10.2307 191.263 151.399 -11.7942 
191.254 150.395 -11.1403 191.286 152.468 -11.8089 191.327 153.435 -11.1859 
191.251 149.598 -10.0099 191.29 154.209 -10.0798 193.505 151.368 -11.7756 
193.5 150.382 -11.1305 193.512 152.418 -11.7805 193.522 153.394 -11.1458 
193.499 149.594 -10.0058 193.514 154.175 -10.0269 195.749 151.36 -11.7677 
195.745 150.381 -11.1239 195.752 152.404 -11.7706 195.755 153.381 -11.1324 
195.743 149.596 -10.0016 195.754 154.165 -10.0111 197.989 151.366 -11.7582 
197.981 150.391 -11.1084 197.996 152.405 -11.7674 197.999 153.379 -11.1293 
197.972 149.61 -9.99018 198 154.164 -10.0086 200.211 151.393 -11.7364 
200.189 150.427 -11.0593 200.233 152.42 -11.7719 200.244 153.382 -11.1328 
200.147 149.654 -9.95634 200.247 154.173 -10.0155 202.381 151.474 -11.6976 
202.34 150.526 -10.9169 202.455 152.471 -11.8224 202.487 153.383 -11.1504 
202.162 149.764 -9.87521 202.495 154.198 -10.0448 204.419 151.672 -11.685 
204.48 150.749 -10.5257 204.667 152.611 -12.1005 204.732 153.335 -11.1864 
203.705 149.959 -9.73531 204.754 154.247 -10.1414 205.998 152.073 -11.906 
206.458 151.705 -10.4772 207 153 -13.32 207 153 -11.07 
205.198 150.334 -9.31374 204.284 149.744 -8.55849 206.619 150.858 -8.71389 
207.053 154.312 -10.4483 208.014 153.505 -11.7515 208.724 153.375 -10.2859 
207.434 153.857 -11.7993 208.193 154.109 -11.3732 207.912 152.222 -9.85723 
208.337 151.825 -8.60668 172.85 154.734 -11.0739 171.54 155.528 -10.4509 
172.178 156.056 -11.4579 171.681 157.251 -11.5409 173.505 157.168 -11.7879 
173.258 152.985 -8.7428 172.073 154.039 -8.64575 172.309 154.244 -9.95108 
183.14 156.039 -9.55303 184.566 155.613 -8.85224 181.972 156.705 -8.85026 
186.818 154.988 -8.81273 189.046 154.72 -8.68083 209.017 154.819 -10.1877 
209.606 152.785 -8.7604 210.493 154.073 -9.57565 211.205 153.73 -8.48193 
211.394 155.232 -9.63652 204.727 154.862 -8.62658 207.029 155.328 -8.68699 
208.53 155.602 -9.18126 210.087 155.992 -9.46837 211.707 156.505 -9.39313 
209.577 156.404 -8.46151 171.039 156.758 -10.9286 170.342 157.473 -10.3154 
170.752 157.737 -11.1968 170.776 158.301 -11.1253 171.581 158.286 -11.313 
172.748 158.198 -11.3791 174.149 158.019 -11.2711 175.68 157.838 -11.1298 
173.378 158.84 -10.4879 171.094 155.239 -8.71653 170.199 156.419 -8.60242 
170.527 156.428 -9.88502 175.3 158.709 -10.1058 177.67 157.658 -10.6976 
176.802 158.46 -9.86814 179.681 157.072 -10.6052 178.318 158.094 -9.40208 
179.816 157.638 -8.8052 177.326 158.733 -8.61109 170.529 158.575 -10.2454 
171.627 158.968 -10.3888 169.787 157.774 -8.63318 170.069 159.186 -8.56854 
171.469 159.707 -8.93753 173.275 159.795 -8.69381 175.3 159.329 -8.61304 
217.014 158.649 -11.3486 217.702 158.94 -11.7702 217.836 158.594 -10.3707 
216.169 157.928 -10.1451 217.248 159.232 -11.7304 218.25 159.75 -13.32 
216.598 159.321 -10.236 218.25 159.75 -11.07 219.226 160.29 -11.7282 
219.826 160.227 -10.2297 218.785 160.579 -11.7689 219.453 160.892 -11.3431 
218.637 160.943 -10.3679 215.128 156.689 -9.45672 213.519 156.1 -9.39244 
213.88 157.424 -9.531 216.574 157.194 -9.16558 215.607 156.275 -8.46232 
214.923 158.576 -9.51694 217.802 157.663 -8.67364 219.061 159.07 -9.80345 
219.259 158.672 -8.57824 214.436 158.845 -8.45826 215.911 159.785 -8.61278 
217.396 160.459 -9.80338 217.168 160.868 -8.57428 220.237 161.688 -10.1272 
220.403 159.774 -8.61622 221.333 161.059 -9.48051 221.647 160.806 -8.43476 
222.238 162.355 -9.42724 218.658 161.913 -8.67205 219.848 162.433 -9.16431 
221.269 163.109 -9.4302 222.844 164.003 -9.27836 220.736 163.49 -8.46758 
230.604 172.033 -11.3445 231.198 172.267 -11.7279 231.226 171.656 -10.2287 
229.807 171.24 -10.1285 230.921 172.686 -11.771 231.75 173.25 -13.32 
230.557 172.762 -10.3768 231.75 173.25 -11.07 232.29 173.521 -11.7921 
232.449 173.301 -10.3937 232.035 173.782 -11.7946 232.37 173.86 -11.4128 
231.841 173.93 -10.4037 229.141 169.258 -9.42702 227.497 168.654 -9.27803 
228.391 170.223 -9.42971 228.016 170.751 -8.46741 229.08 171.613 -9.16474 
230.422 170.162 -9.47905 229.629 172.721 -8.67262 231.634 171.093 -8.60801 
230.669 169.855 -8.43212 232.195 172.323 -9.80325 232.514 172.183 -8.55514 
230.985 173.655 -9.85597 230.744 173.869 -8.5813 232.463 173.946 -10.3079 
232.939 173.363 -8.63782 232.765 174.245 -8.65013 231.891 174.391 -8.64491 
234.013 189.048 -8.8136 232.789 190.156 -8.91794 231.638 191.612 -8.97468 
236.131 188.371 -9.80692 235.186 188.449 -9.74498 235.092 188.196 -8.51993 
231.023 192.758 -9.69247 237.009 188.633 -9.6666 238.237 189.661 -8.56596 
237.31 188.291 -8.38655 238.637 191.415 -9.05988 238.63 193.333 -8.75615 
230.455 193.846 -8.96361 238.117 195.579 -8.93198 229.806 195.903 -8.98379 
229.153 198.068 -8.93478 237.54 197.695 -8.95078 228.832 199.572 -9.52732 
237.005 198.849 -9.6911 236.438 200.165 -8.97554 228.48 200.478 -8.63446 
228.655 200.982 -9.89101 228.739 202.207 -9.90033 235.342 202.157 -8.94122 
229.063 203.3 -9.71581 234.468 203.138 -9.63656 233.609 204.225 -8.8615 
228.841 203.445 -8.53339 229.673 204.403 -8.68576 230.584 204.918 -9.6504 
231.327 205.076 -9.70776 230.579 205.183 -8.52577 232.386 204.808 -9.40442 
231.755 205.333 -8.57934 180.223 149.412 -8.56996 182.327 149.271 -8.57922 
178.311 149.717 -7.05983 176.869 150.128 -6.99743 176.916 150.086 -8.09996 
180.206 149.475 -7.04954 182.315 149.364 -7.04508 184.522 149.218 -8.57564 
[...]
POINT_DATA 782
COLOR_SCALARS scalars 1
0.27451 0.247059 0.403922 
0.447059 0.305882 
0.231373 0.498039 
0.376471 0.376471 
0.231373 0.262745 
0.282353 0.458824 
0.305882 0.313725 
0.431373 0.623529 
0.368627 0.266667 
0.560784 0.423529 
0.521569 0.270588 
0.372549 0.427451 
0.25098 0.219608 
0.407843 0.360784 
0.521569 0.592157 
0.282353 0.203922 
0.243137 0.635294 
0.501961 0.231373 
0.301961 0.207843 
0.290196 0.537255 
0.294118 0.215686 
0.533333 0.65098 
0.247059 0.32549 
0.207843 0.454902 
0.6 0.262745 
0.211765 0.596078 
0.262745 0.454902 
0.227451 0.309804 
0.337255 0.321569 
0.356863 0.423529 
0.411765 0.6 
0.392157 0.419608 
0.529412 0.631373 
0.384314 0.529412 
0.298039 0.27451 
0.388235 0.654902 
0.647059 0.439216 
0.294118 0.407843 
0.313725 0.654902 
0.313725 0.533333 
0.407843 0.427451 
0.505882 0.396078 
0.498039 0.682353 
0.501961 0.25098 
0.286275 0.360784 
0.639216 0.415686 
0.262745 0.262745 
0.4 0.403922 
0.388235 0.380392 
0.560784 0.545098 
0.486275 0.27451 
0.239216 0.294118 
0.270588 0.423529 
0.545098 0.505882 
0.34902 0.541176 
0.34902 0.509804 
0.435294 0.305882 
0.462745 0.478431 
0.266667 0.396078 
0.427451 0.352941 
0.32549 0.282353 
0.203922 0.580392 
0.443137 0.301961 
0.498039 0.270588 
0.203922 0.580392 
0.298039 0.415686 
0.470588 0.607843 
0.254902 0.207843 
0.52549 0.490196 
0.364706 0.207843 
0.258824 0.364706 
0.501961 0.588235 
0.607843 0.486275 
0.584314 0.243137 
0.321569 0.466667 
0.294118 0.611765 
0.4 0.541176 
0.407843 0.611765 
0.458824 0.290196 
0.384314 0.552941 
0.337255 0.247059 
0.662745 0.223529 
0.207843 0.278431 
0.223529 0.219608 
0.305882 0.47451 
0.337255 0.196078 
0.211765 0.294118 
0.462745 0.298039 
0.517647 0.470588 
0.301961 0.211765 
0.227451 0.294118 
0.458824 0.294118 
0.458824 0.211765 
0.211765 0.294118 
0.458824 0.294118 
0.458824 0.211765 
0.211765 0.294118 
0.458824 0.294118 
0.458824 0.211765 
0.211765 0.294118 
0.458824 0.294118 
0.458824 0.211765 
0.211765 0.294118 
0.458824 0.294118 
0.462745 0.211765 
0.211765 0.294118 
0.462745 0.298039 
0.470588 0.211765 
0.227451 0.290196 
0.454902 0.317647 
0.501961 0.203922 
0.294118 0.247059 
0.392157 0.32549 
0.513725 0.619608 
0.27451 0.533333 
0.392157 0.266667 
0.419608 0.25098 
0.262745 0.243137 
0.333333 0.603922 
0.45098 0.286275 
0.352941 0.380392 
0.623529 0.34902 
0.254902 0.733333 
0.576471 0.396078 
0.407843 0.309804 
0.411765 0.568627 
0.270588 0.368627 
0.376471 0.403922 
0.533333 0.560784 
0.207843 0.270588 
0.282353 0.556863 
0.376471 0.239216 
0.211765 0.282353 
0.262745 0.6 
0.552941 0.411765 
0.619608 0.333333 
0.243137 0.301961 
0.501961 0.223529 
0.427451 0.678431 
0.568627 0.301961 
0.333333 0.447059 
0.513725 0.454902 
0.607843 0.560784 
0.407843 0.278431 
0.247059 0.388235 
0.439216 0.266667 
0.317647 0.415686 
0.501961 0.266667 
0.415686 0.247059 
0.278431 0.392157 
0.266667 0.345098 
0.376471 0.596078 
0.364706 0.243137 
0.533333 0.243137 
0.329412 0.333333 
0.568627 0.243137 
0.329412 0.439216 
0.568627 0.243137 
0.329412 0.376471 
0.533333 0.6 
0.27451 0.368627 
0.376471 0.278431 
0.266667 0.415686 
0.439216 0.247059 
0.309804 0.388235 
0.490196 0.231373 
0.364706 0.231373 
0.2 0.364706 
0.376471 0.368627 
0.27451 0.376471 
0.6 0.243137 
0.529412 0.568627 
0.329412 0.239216 
0.329412 0.231373 
0.317647 0.317647 
0.498039 0.431373 
0.494118 0.607843 
0.337255 0.556863 
0.317647 0.239216 
0.309804 0.682353 
0.223529 0.533333 
0.298039 0.639216 
0.572549 0.305882 
0.415686 0.415686 
0.572549 0.305882 
0.666667 0.682353 
0.572549 0.282353 
0.235294 0.25098 
0.396078 0.211765 
0.721569 0.505882 
0.262745 0.576471 
0.27451 0.270588 
0.360784 0.670588 
0.352941 0.294118 
0.294118 0.356863 
0.266667 0.219608 
0.388235 0.396078 
0.290196 0.396078 
0.290196 0.392157 
0.290196 0.392157 
0.290196 0.392157 
0.290196 0.392157 
0.290196 0.392157 
0.290196 0.392157 
0.290196 0.392157 
0.286275 0.392157 
0.376471 0.215686 
0.305882 0.607843 
0.4 0.686275 
0.423529 0.619608 
0.435294 0.662745 
0.490196 0.686275 
0.411765 0.243137 
0.631373 0.486275 
0.290196 0.407843 
0.290196 0.392157 
0.286275 0.392157 
0.286275 0.392157 
0.286275 0.392157 
0.290196 0.392157 
0.309804 0.407843 
0.482353 0.6 
0.219608 0.270588 
0.513725 0.466667 
0.227451 0.329412 
0.6 0.572549 
0.223529 0.619608 
0.45098 0.270588 
0.368627 0.513725 
0.360784 0.466667 
0.607843 0.572549 
0.462745 0.415686 
0.235294 0.321569 
0.2 0.262745 
0.364706 0.219608 
0.647059 0.498039 
0.32549 0.376471 
0.643137 0.396078 
0.615686 0.407843 
0.643137 0.407843 
0.592157 0.235294 
0.286275 0.513725 
0.231373 0.317647 
0.360784 0.6 
0.4 0.505882 
0.235294 0.360784 
0.317647 0.447059 
0.592157 0.4 
0.494118 0.231373 
0.317647 0.360784 
0.580392 0.396078 
0.494118 0.235294 
0.317647 0.580392 
0.4 0.494118 
0.231373 0.317647 
0.580392 0.4 
0.505882 0.592157 
0.447059 0.513725 
0.6 0.407843 
0.235294 0.286275 
0.643137 0.407843 
0.588235 0.384314 
0.588235 0.552941 
0.588235 0.419608 
0.498039 0.345098 
0.623529 0.388235 
0.341176 0.576471 
0.215686 0.239216 
0.266667 0.564706 
0.223529 0.219608 
0.223529 0.6 
0.239216 0.458824 
0.309804 0.419608 
0.580392 0.333333 
0.227451 0.223529 
0.223529 0.231373 
0.580392 0.403922 
0.290196 0.286275 
0.294118 0.270588 
0.227451 0.235294 
0.596078 0.392157 
0.223529 0.52549 
0.25098 0.4 
0.431373 0.313725 
0.654902 0.486275 
0.458824 0.498039 
0.498039 0.498039 
0.498039 0.498039 
0.498039 0.498039 
0.498039 0.498039 
0.498039 0.478431 
0.4 0.705882 
0.541176 0.741176 
0.498039 0.25098 
0.360784 0.745098 
0.490196 0.682353 
0.564706 0.333333 
0.509804 0.498039 
0.498039 0.498039 
0.498039 0.498039 
0.509804 0.560784 
0.658824 0.321569 
0.611765 0.439216 
0.670588 0.560784 
0.682353 0.384314 
0.290196 0.309804 
0.662745 0.498039 
0.317647 0.439216 
0.564706 0.211765 
0.282353 0.407843 
0.694118 0.486275 
0.223529 0.2 
0.584314 0.45098 
0.27451 0.494118 
0.713725 0.458824 
0.709804 0.486275 
0.403922 0.372549 
0.537255 0.552941 
0.439216 0.647059 
0.329412 0.678431 
0.482353 0.517647 
0.196078 0.25098 
0.666667 0.478431 
0.482353 0.666667 
0.482353 0.666667 
0.482353 0.196078 
0.25098 0.678431 
0.486275 0.517647 
0.329412 0.709804 
0.486275 0.643137 
0.45098 0.67451 
0.294118 0.392157 
0.32549 0.67451 
0.309804 0.34902 
0.419608 0.266667 
0.572549 0.372549 
0.631373 0.227451 
0.270588 0.407843 
0.345098 0.482353 
0.372549 0.611765 
0.258824 0.564706 
0.223529 0.278431 
0.286275 0.254902 
0.305882 0.419608 
0.627451 0.498039 
0.580392 0.356863 
0.227451 0.239216 
0.286275 0.294118 
0.584314 0.403922 
0.27451 0.239216 
0.611765 0.415686 
0.541176 0.278431 
0.439216 0.772549 
0.811765 0.894118 
0.94902 0.952941 
0.815686 0.929412 
0.807843 0.882353 
0.796078 0.827451 
0.792157 0.796078 
0.788235 0.788235 
0.788235 0.788235 
0.788235 0.788235 
0.788235 0.788235 
0.788235 0.788235 
0.788235 0.796078 
0.780392 0.819608 
0.827451 0.752941 
0.901961 0.956863 
0.952941 0.905882 
0.807843 0.721569 
0.717647 0.870588 
0.905882 0.854902 
0.780392 0.694118 
0.760784 0.690196 
0.435294 0.788235 
0.729412 0.803922 
0.733333 0.670588 
0.670588 0.733333 
0.796078 0.67451 
0.466667 0.517647 
0.458824 0.780392 
0.839216 0.894118 
0.670588 0.690196 
0.917647 0.890196 
0.768627 0.92549 
0.815686 0.862745 
0.917647 0.717647 
0.67451 0.905882 
0.862745 0.682353 
0.870588 0.737255 
0.729412 
